 Gaussian 09, Revision E.01,
 Gaussian 09:  ES64L-G09RevE.01 30-Nov-2015

 --------------------------------------------
 # opt freq aug-cc-pvtz geom=connectivity m06
 --------------------------------------------

 ---------------
 1chloro-heptane
 ---------------
 Symbolic Z-matrix:
 Charge =  0 Multiplicity = 1

 SCF Done:  E(RM06) =  -735.849860840     A.U. after   13 cycles
 SCF Done:  E(RM06) =  -735.859187005     A.U. after   12 cycles
 SCF Done:  E(RM06) =  -735.860358164     A.U. after   11 cycles
 SCF Done:  E(RM06) =  -735.860392973     A.U. after   10 cycles
 SCF Done:  E(RM06) =  -735.860395992     A.U. after    8 cycles
 SCF Done:  E(RM06) =  -735.860396351     A.U. after    8 cycles
 SCF Done:  E(RM06) =  -735.860396384     A.U. after    8 cycles
 SCF Done:  E(RM06) =  -735.860396394     A.U. after    7 cycles
 Optimization completed.
    -- Stationary point found.
 Normal termination of Gaussian 09 at Thu Jul  6 23:35:25 2017.

 ---------------------------------------------------------------------
 #N Geom=AllCheck Guess=TCheck SCRF=Check GenChk RM06/Aug-CC-pVTZ Freq
 ---------------------------------------------------------------------

 Structure from the checkpoint file:  "20170630_augccpVTZ_ccsdt_chloroheptane.chk"
 ---------------
 1chloro-heptane
 ---------------
 Charge =  0 Multiplicity = 1

                         Standard orientation:
 ---------------------------------------------------------------------
 Center     Atomic      Atomic             Coordinates (Angstroms)
 Number     Number       Type             X           Y           Z
 ---------------------------------------------------------------------
      1          6           0        2.582052    0.659066   -0.000001
      2          1           0        2.594571    1.294468   -0.884465
      3          1           0        2.594639    1.294491    0.884445
      4          6           0        1.402584   -0.274043    0.000057
      5          1           0        1.455631   -0.927240   -0.876098
      6          1           0        1.455670   -0.927187    0.876248
      7          6           0        0.092411    0.491253    0.000060
      8          1           0        0.051578    1.151035    0.875307
      9          1           0        0.051569    1.151021   -0.875197
     10          6           0       -1.118935   -0.418912    0.000070
     11          1           0       -1.077171   -1.079494   -0.874522
     12          1           0       -1.077197   -1.079446    0.874699
     13         17           0        4.139109   -0.245109   -0.000052
     14          6           0       -2.432039    0.335345    0.000027
     15          1           0       -2.473012    0.996793    0.874629
     16          1           0       -2.472955    0.996786   -0.874583
     17          6           0       -3.646004   -0.571721   -0.000012
     18          1           0       -3.601486   -1.230807    0.873793
     19          1           0       -3.601410   -1.230832   -0.873796
     20          6           0       -4.948271    0.200372   -0.000081
     21          1           0       -5.019729    0.844027   -0.879857
     22          1           0       -5.816529   -0.458963   -0.000110
     23          1           0       -5.019807    0.844050    0.879672
 ---------------------------------------------------------------------

 SCF Done:  E(RM06) =  -735.860396394     A.U. after    2 cycles

 The electronic state is 1-A.
 Alpha  occ. eigenvalues -- -101.72429 -10.29847 -10.24820 -10.24517 -10.23969
 Alpha  occ. eigenvalues --  -10.23672 -10.23627 -10.22802  -9.57349  -7.28567
 Alpha  occ. eigenvalues --   -7.27648  -7.27642  -0.87443  -0.83130  -0.79695
 Alpha  occ. eigenvalues --   -0.74608  -0.68406  -0.62667  -0.60225  -0.59237
 Alpha  occ. eigenvalues --   -0.51136  -0.48642  -0.46041  -0.45094  -0.44927
 Alpha  occ. eigenvalues --   -0.42973  -0.40607  -0.40505  -0.38564  -0.36651
 Alpha  occ. eigenvalues --   -0.36510  -0.34717  -0.34541  -0.33747  -0.33682
 Alpha  occ. eigenvalues --   -0.30379  -0.30271
 Alpha virt. eigenvalues --   -0.04218  -0.03349  -0.03151  -0.03029  -0.01727
 Alpha virt. eigenvalues --   -0.01391  -0.01389  -0.00159  -0.00092   0.00115
 Alpha virt. eigenvalues --    0.00667   0.00920   0.01717   0.02198   0.02298

 Mulliken charges:
               1
     1  C   -1.132314
     2  H    0.563903
     3  H    0.563903
     4  C   -1.559416
     5  H    0.808367
     6  H    0.808361
     7  C   -1.514021
     8  H    0.873728
     9  H    0.873721
    10  C   -1.315377
    11  H    0.865611
    12  H    0.865608
    13  Cl  -0.496987
    14  C   -1.368395
    15  H    0.871939
    16  H    0.871949
    17  C   -1.443446
    18  H    0.809856
    19  H    0.809860
    20  C   -2.906141
    21  H    0.732791
    22  H    0.683705
    23  H    0.732795
 Sum of Mulliken charges =  -0.00000

 Dipole moment (field-independent basis, Debye):
    X=             -2.1957    Y=              0.7684    Z=              0.0001  Tot=              2.3262
 Quadrupole moment (field-independent basis, Debye-Ang):
   XX=            -71.8876   YY=            -60.0321   ZZ=            -59.0526
   XY=              2.7183   XZ=              0.0002   YZ=              0.0000

  Exact polarizability: 136.084  -3.084  94.137  -0.015  -0.047  86.525
 Approx polarizability: 143.973  -6.252 136.941  -0.000   0.000 131.370

                      1                      2                      3
                      A                      A                      A
 Frequencies --      0.7377                64.4553                73.4916
 Red. masses --      2.0593                 2.4689                 4.2921
 Frc consts  --      0.0000                 0.0060                 0.0137
 IR Inten    --      0.0151                 1.3735                 0.6969

                      4                      5                      6
                      A                      A                      A
 Frequencies --    111.7328               127.4695               176.7197
 Red. masses --      2.2039                 1.8880                 2.0699
 Frc consts  --      0.0162                 0.0181                 0.0381
 IR Inten    --      0.0043                 0.4080                 0.2109

                      7                      8                      9
                      A                      A                      A
 Frequencies --    183.4126               197.5663               249.0333
 Red. masses --      4.0462                 1.2299                 5.1639
 Frc consts  --      0.0802                 0.0283                 0.1887
 IR Inten    --      1.0323                 0.0070                 0.5071

                     10                     11                     12
                      A                      A                      A
 Frequencies --    336.9297               447.8792               479.2263
 Red. masses --      3.1532                 3.7041                 2.8223
 Frc consts  --      0.2109                 0.4378                 0.3819
 IR Inten    --      1.5961                 3.4037                 0.3786

                     13                     14                     15
                      A                      A                      A
 Frequencies --    699.7707               712.8275               744.7994
 Red. masses --      1.0636                 1.0829                 1.1311
 Frc consts  --      0.3069                 0.3242                 0.3697
 IR Inten    --      2.1988                 0.1578                 1.0115

                     16                     17                     18
                      A                      A                      A
 Frequencies --    752.6503               813.9009               895.8619
 Red. masses --      6.1001                 1.1972                 1.6953
 Frc consts  --      2.0360                 0.4672                 0.8016
 IR Inten    --     52.8958                 0.0439                 1.3829

                     19                     20                     21
                      A                      A                      A
 Frequencies --    901.3314               989.7948              1021.3887
 Red. masses --      1.2187                 1.1531                 4.1094
 Frc consts  --      0.5833                 0.6656                 2.5258
 IR Inten    --      0.4174                 0.1561                 2.5800

                     22                     23                     24
                      A                      A                      A
 Frequencies --   1042.7580              1066.1138              1078.4732
 Red. masses --      3.0776                 2.7336                 1.9508
 Frc consts  --      1.9716                 1.8306                 1.3368
 IR Inten    --      0.2820                 1.7573                 0.4149

                     25                     26                     27
                      A                      A                      A
 Frequencies --   1084.6565              1092.9401              1139.9256
 Red. masses --      2.1511                 1.1615                 2.8919
 Frc consts  --      1.4911                 0.8175                 2.2140
 IR Inten    --      2.3726                 0.7134                 0.7439

                     28                     29                     30
                      A                      A                      A
 Frequencies --   1203.4057              1218.5218              1245.9821
 Red. masses --      1.7614                 1.2744                 1.3968
 Frc consts  --      1.5029                 1.1149                 1.2777
 IR Inten    --      0.0146                 4.6751                 0.0919

                     31                     32                     33
                      A                      A                      A
 Frequencies --   1266.8877              1288.4499              1306.5163
 Red. masses --      1.2596                 1.2146                 1.0686
 Frc consts  --      1.1912                 1.1880                 1.0747
 IR Inten    --      5.7502                 0.3414                 0.1814

                     34                     35                     36
                      A                      A                      A
 Frequencies --   1313.9396              1317.2328              1321.1812
 Red. masses --      1.3154                 1.1100                 1.0879
 Frc consts  --      1.3380                 1.1347                 1.1188
 IR Inten    --     18.3607                 0.0014                 0.2796

                     37                     38                     39
                      A                      A                      A
 Frequencies --   1355.7173              1386.9281              1395.5372
 Red. masses --      1.4719                 1.6245                 1.4818
 Frc consts  --      1.5940                 1.8411                 1.7003
 IR Inten    --      6.0617                 2.0423                 3.0822

                     40                     41                     42
                      A                      A                      A
 Frequencies --   1399.5810              1452.0818              1454.0740
 Red. masses --      1.5938                 1.0876                 1.0790
 Frc consts  --      1.8394                 1.3511                 1.3441
 IR Inten    --      0.4894                 0.0885                 0.2322

                     43                     44                     45
                      A                      A                      A
 Frequencies --   1455.9914              1461.3931              1469.8328
 Red. masses --      1.1005                 1.0759                 1.0819
 Frc consts  --      1.3746                 1.3539                 1.3772
 IR Inten    --      1.1385                 0.1818                 1.8152

                     46                     47                     48
                      A                      A                      A
 Frequencies --   1473.1642              1479.9106              1486.5342
 Red. masses --      1.0371                 1.0951                 1.0958
 Frc consts  --      1.3261                 1.4131                 1.4267
 IR Inten    --      7.2419                 0.4624                13.0515

                     49                     50                     51
                      A                      A                      A
 Frequencies --   2977.0177              2981.6573              2990.7394
 Red. masses --      1.0591                 1.0590                 1.0606
 Frc consts  --      5.5301                 5.5472                 5.5893
 IR Inten    --      1.4887                 0.1098                21.1363

                     52                     53                     54
                      A                      A                      A
 Frequencies --   2999.6785              3005.2439              3010.3296
 Red. masses --      1.0603                 1.0973                 1.0375
 Frc consts  --      5.6214                 5.8390                 5.5397
 IR Inten    --     56.4190                 0.7862                42.4042

                     55                     56                     57
                      A                      A                      A
 Frequencies --   3012.4318              3013.7828              3027.8288
 Red. masses --      1.1001                 1.0604                 1.1025
 Frc consts  --      5.8817                 5.6745                 5.9554
 IR Inten    --      0.1373                26.9049                 1.9960

                     58                     59                     60
                      A                      A                      A
 Frequencies --   3039.8564              3051.7817              3055.5272
 Red. masses --      1.1036                 1.0580                 1.1035
 Frc consts  --      6.0086                 5.8055                 6.0698
 IR Inten    --     58.3273                22.2301                39.3137

                     61                     62                     63
                      A                      A                      A
 Frequencies --   3077.9328              3093.1104              3109.2091
 Red. masses --      1.1020                 1.1017                 1.1088
 Frc consts  --      6.1511                 6.2102                 6.3152
 IR Inten    --     48.0074                32.0163                12.3209

 - Thermochemistry -
 -------------------
 Temperature   298.150 Kelvin.  Pressure   1.00000 Atm.
 Atom     1 has atomic number  6 and mass  12.00000

 Molecular mass:   134.08623 amu.
 Principal axes and moments of inertia in atomic units:
                           1         2         3
     Eigenvalues --   166.444864969.514135058.45955
           X            0.99999   0.00385   0.00000
           Y           -0.00385   0.99999  -0.00000
           Z           -0.00000   0.00000   1.00000
 This molecule is an asymmetric top.
 Rotational symmetry number  1.
 Rotational temperatures (Kelvin)      0.52038     0.01743     0.01712
 Rotational constants (GHZ):          10.84288     0.36316     0.35678
 Zero-point vibrational energy     542415.8 (Joules/Mol)
                                  129.64048 (Kcal/Mol)
 Warning -- explicit consideration of  12 degrees of freedom as
           vibrations may cause significant error
 Vibrational temperatures:      1.06    92.74   105.74   160.76   183.40
          (Kelvin)            254.26   263.89   284.25   358.30   484.77
                              644.40   689.50  1006.81  1025.60  1071.60
                             1082.89  1171.02  1288.94  1296.81  1424.09
                             1469.55  1500.29  1533.90  1551.68  1560.58
                             1572.50  1640.10  1731.43  1753.18  1792.69
                             1822.77  1853.79  1879.78  1890.46  1895.20
                             1900.88  1950.57  1995.48  2007.86  2013.68
                             2089.22  2092.09  2094.84  2102.62  2114.76
                             2119.55  2129.26  2138.79  4283.26  4289.93
                             4303.00  4315.86  4323.87  4331.19  4334.21
                             4336.16  4356.36  4373.67  4390.83  4396.22
                             4428.45  4450.29  4473.45

 Zero-point correction=                           0.206595 (Hartree/Particle)
 Thermal correction to Energy=                    0.217492
 Thermal correction to Enthalpy=                  0.218436
 Thermal correction to Gibbs Free Energy=         0.165167
 Sum of electronic and zero-point Energies=           -735.653801
 Sum of electronic and thermal Energies=              -735.642905
 Sum of electronic and thermal Enthalpies=            -735.641960
 Sum of electronic and thermal Free Energies=         -735.695229

                     E (Thermal)             CV                S
                      KCal/Mol        Cal/Mol-Kelvin    Cal/Mol-Kelvin
 Total                  136.478             37.192            112.114
 Electronic               0.000              0.000              0.000
 Translational            0.889              2.981             40.592
 Rotational               0.889              2.981             29.816
 Vibrational            134.701             31.230             41.706
 Vibration     1          0.592              1.987             13.191
 Vibration     2          0.597              1.971              4.316
 Vibration     3          0.599              1.967              4.058
 Vibration     4          0.607              1.940              3.239
 Vibration     5          0.611              1.926              2.984
 Vibration     6          0.628              1.871              2.363
 Vibration     7          0.631              1.862              2.293
 Vibration     8          0.637              1.843              2.156
 Vibration     9          0.662              1.764              1.737
 Vibration    10          0.718              1.602              1.227
 Vibration    11          0.807              1.366              0.802
 Vibration    12          0.836              1.296              0.712

 Optimization completed on the basis of negligible forces.
    -- Stationary point found.
 Normal termination of Gaussian 09 at Fri Jul  7 03:05:33 2017.
