 Gaussian 09, Revision D.01,
 Gaussian 09:  ES64L-G09RevD.01 24-Apr-2013

 ----------------------------------------
 # opt freq cc-pvdz geom=connectivity m06
 ----------------------------------------

 -------------------
 Title Card Required
 -------------------
 Symbolic Z-matrix:
 Charge =  0 Multiplicity = 1

 SCF Done:  E(RM06) =  -846.135826659     A.U. after   15 cycles
 SCF Done:  E(RM06) =  -846.156507264     A.U. after   15 cycles
 SCF Done:  E(RM06) =  -846.158140258     A.U. after   13 cycles
 SCF Done:  E(RM06) =  -846.158191997     A.U. after    9 cycles
 SCF Done:  E(RM06) =  -846.158197128     A.U. after    8 cycles
 Optimization completed.
    -- Stationary point found.
 Normal termination of Gaussian 09 at Fri Jul  7 16:18:23 2017.

 -----------------------------------------------------------------
 #N Geom=AllCheck Guess=TCheck SCRF=Check GenChk RM06/CC-pVDZ Freq
 -----------------------------------------------------------------

 Structure from the checkpoint file:  "201707_ccpVDZ_m06_pentacene.chk"
 -------------------
 Title Card Required
 -------------------
 Charge =  0 Multiplicity = 1

                         Standard orientation:
 ---------------------------------------------------------------------
 Center     Atomic      Atomic             Coordinates (Angstroms)
 Number     Number       Type             X           Y           Z
 ---------------------------------------------------------------------
      1          6           0       -4.928324    1.407063    0.000000
      2          6           0       -3.668294    0.724371    0.000000
      3          6           0       -3.668294   -0.724371    0.000000
      4          6           0       -4.928325   -1.407063    0.000000
      5          6           0       -6.101897   -0.715390    0.000000
      6          6           0       -6.101897    0.715391    0.000000
      7          1           0       -4.922715    2.501201    0.000000
      8          1           0       -4.922716   -2.501200    0.000000
      9          1           0       -7.054437   -1.251203    0.000000
     10          1           0       -7.054436    1.251204    0.000000
     11          6           0       -2.461311    1.404639    0.000000
     12          6           0       -1.223020    0.725246    0.000000
     13          6           0       -1.223020   -0.725247    0.000000
     14          6           0       -2.461312   -1.404639    0.000000
     15          1           0       -2.462016    2.500033    0.000000
     16          1           0       -2.462016   -2.500033    0.000000
     17          6           0        0.000000    1.405149    0.000000
     18          6           0        1.223020    0.725246    0.000000
     19          6           0        1.223020   -0.725247    0.000000
     20          6           0        0.000000   -1.405150    0.000000
     21          1           0        0.000000    2.500412    0.000000
     22          1           0        0.000000   -2.500413    0.000000
     23          6           0        2.461311    1.404639    0.000000
     24          6           0        2.461312   -1.404639    0.000000
     25          1           0        2.462016    2.500033    0.000000
     26          1           0        2.462016   -2.500033    0.000000
     27          6           0        4.928324    1.407063    0.000000
     28          6           0        6.101897    0.715391    0.000000
     29          6           0        6.101897   -0.715390    0.000000
     30          6           0        4.928325   -1.407063    0.000000
     31          1           0        4.922715    2.501201    0.000000
     32          1           0        7.054436    1.251204    0.000000
     33          1           0        7.054437   -1.251203    0.000000
     34          1           0        4.922716   -2.501200    0.000000
     35          6           0        3.668294   -0.724371    0.000000
     36          6           0        3.668294    0.724371    0.000000
 ---------------------------------------------------------------------

 SCF Done:  E(RM06) =  -846.158197128     A.U. after    2 cycles

 The electronic state is 1-A.
 Alpha  occ. eigenvalues --  -10.26952 -10.26950 -10.26921 -10.26918 -10.26875
 Alpha  occ. eigenvalues --  -10.26875 -10.26843 -10.26843 -10.26133 -10.26133
 Alpha  occ. eigenvalues --  -10.26104 -10.26104 -10.26086 -10.26083 -10.26062
 Alpha  occ. eigenvalues --  -10.26061 -10.26059 -10.26059 -10.26036 -10.26036
 Alpha  occ. eigenvalues --  -10.26031 -10.26031  -0.90627  -0.89135  -0.86779
 Alpha  occ. eigenvalues --   -0.83592  -0.80887  -0.79649  -0.79372  -0.77010
 Alpha  occ. eigenvalues --   -0.75435  -0.73859  -0.70093  -0.68392  -0.63686
 Alpha  occ. eigenvalues --   -0.63289  -0.61883  -0.60752  -0.60111  -0.58535
 Alpha  occ. eigenvalues --   -0.53500  -0.53315  -0.52981  -0.50309  -0.49306
 Alpha  occ. eigenvalues --   -0.47625  -0.46533  -0.46447  -0.45922  -0.44736
 Alpha  occ. eigenvalues --   -0.43699  -0.43029  -0.42590  -0.42275  -0.42271
 Alpha  occ. eigenvalues --   -0.41571  -0.40967  -0.40757  -0.38841  -0.37853
 Alpha  occ. eigenvalues --   -0.36875  -0.36152  -0.34730  -0.34388  -0.33966
 Alpha  occ. eigenvalues --   -0.33629  -0.32634  -0.30651  -0.29339  -0.27539
 Alpha  occ. eigenvalues --   -0.25121  -0.23398  -0.18560
 Alpha virt. eigenvalues --   -0.09268  -0.03817  -0.02095   0.00636   0.02840
 Alpha virt. eigenvalues --    0.03264   0.04187   0.07080   0.07080   0.07098
 Alpha virt. eigenvalues --    0.08453   0.09143   0.09145   0.10246   0.10566

 Mulliken charges:
               1
     1  C    0.003321
     2  C    0.033327
     3  C    0.033327
     4  C    0.003321
     5  C    0.001117
     6  C    0.001117
     7  H   -0.011376
     8  H   -0.011376
     9  H    0.004846
    10  H    0.004846
    11  C   -0.037891
    12  C    0.059922
    13  C    0.059922
    14  C   -0.037892
    15  H   -0.020589
    16  H   -0.020588
    17  C   -0.042392
    18  C    0.059922
    19  C    0.059922
    20  C   -0.042393
    21  H   -0.022960
    22  H   -0.022960
    23  C   -0.037891
    24  C   -0.037892
    25  H   -0.020589
    26  H   -0.020588
    27  C    0.003321
    28  C    0.001117
    29  C    0.001117
    30  C    0.003321
    31  H   -0.011376
    32  H    0.004846
    33  H    0.004846
    34  H   -0.011376
    35  C    0.033327
    36  C    0.033327
 Sum of Mulliken charges =   0.00000

 Dipole moment (field-independent basis, Debye):
    X=              0.0000    Y=              0.0000    Z=              0.0000  Tot=              0.0000
 Quadrupole moment (field-independent basis, Debye-Ang):
   XX=           -107.9703   YY=           -111.1105   ZZ=           -134.9471
   XY=              0.0000   XZ=              0.0000   YZ=              0.0000

  Exact polarizability: 604.940   0.000 246.542   0.000   0.000  76.759
 Approx polarizability: 875.122   0.000 486.928   0.000   0.000 129.191

                      1                      2                      3
                      A                      A                      A
 Frequencies --     43.0871                75.6003               105.1891
 Red. masses --      5.9701                 3.8877                 5.7292
 Frc consts  --      0.0065                 0.0131                 0.0373
 IR Inten    --      0.3078                 0.0000                 0.0000

                      4                      5                      6
                      A                      A                      A
 Frequencies --    122.1679               151.9061               194.7471
 Red. masses --      5.4205                 3.9656                 5.4922
 Frc consts  --      0.0477                 0.0539                 0.1227
 IR Inten    --      1.2225                 0.0000                 0.8030

                      7                      8                      9
                      A                      A                      A
 Frequencies --    235.0088               243.3849               262.8869
 Red. masses --      4.9768                 4.0560                 7.0775
 Frc consts  --      0.1619                 0.1416                 0.2882
 IR Inten    --      0.0000                 0.0000                 0.0000

                     10                     11                     12
                      A                      A                      A
 Frequencies --    294.5403               350.8501               352.7487
 Red. masses --      5.0863                 4.4199                 4.1020
 Frc consts  --      0.2600                 0.3206                 0.3007
 IR Inten    --      0.0000                 0.1566                 0.0000

                     13                     14                     15
                      A                      A                      A
 Frequencies --    382.8351               439.0785               469.4798
 Red. masses --      3.4744                 4.4478                 2.4113
 Frc consts  --      0.3000                 0.5052                 0.3131
 IR Inten    --      0.0272                 0.0000                24.2192

                     16                     17                     18
                      A                      A                      A
 Frequencies --    472.3134               481.0876               485.5552
 Red. masses --      2.5242                 2.6653                 3.5339
 Frc consts  --      0.3318                 0.3634                 0.4909
 IR Inten    --      0.0000                 1.8478                 0.0000

                     19                     20                     21
                      A                      A                      A
 Frequencies --    487.3030               501.4777               523.3401
 Red. masses --      6.7945                 6.2535                 3.6231
 Frc consts  --      0.9506                 0.9266                 0.5847
 IR Inten    --      9.1784                 0.0000                 0.0000

                     22                     23                     24
                      A                      A                      A
 Frequencies --    552.0845               572.6617               607.2975
 Red. masses --      3.4678                 6.8055                 6.6902
 Frc consts  --      0.6228                 1.3149                 1.4538
 IR Inten    --      0.0000                 3.5754                 0.0000

                     25                     26                     27
                      A                      A                      A
 Frequencies --    628.9597               635.2410               718.8166
 Red. masses --      6.6466                 7.0764                 6.0707
 Frc consts  --      1.5492                 1.6824                 1.8481
 IR Inten    --      5.3170                 0.0000                 0.0000

                     28                     29                     30
                      A                      A                      A
 Frequencies --    727.4876               746.7658               752.4105
 Red. masses --      5.2412                 1.2383                 1.2900
 Frc consts  --      1.6343                 0.4068                 0.4303
 IR Inten    --      0.0000                51.4170                 0.0000

                     31                     32                     33
                      A                      A                      A
 Frequencies --    756.7180               762.3391               773.1090
 Red. masses --      5.2296                 3.1990                 6.2997
 Frc consts  --      1.7643                 1.0954                 2.2184
 IR Inten    --      4.3241                 0.0000                 0.0000

                     34                     35                     36
                      A                      A                      A
 Frequencies --    777.2090               780.6956               802.0651
 Red. masses --      2.6759                 2.5231                 3.3243
 Frc consts  --      0.9523                 0.9060                 1.2600
 IR Inten    --      0.0000                 0.0000                 0.0000

                     37                     38                     39
                      A                      A                      A
 Frequencies --    825.2367               846.8130               846.8469
 Red. masses --      5.4760                 1.2681                 1.3873
 Frc consts  --      2.1972                 0.5358                 0.5862
 IR Inten    --      0.0776                 0.0005                11.8119

                     40                     41                     42
                      A                      A                      A
 Frequencies --    852.6057               878.4459               881.5422
 Red. masses --      1.3999                 2.1011                 1.5595
 Frc consts  --      0.5996                 0.9553                 0.7140
 IR Inten    --      0.0000                 0.0760                 0.0000

                     43                     44                     45
                      A                      A                      A
 Frequencies --    892.9222               903.7246               907.6425
 Red. masses --      1.4897                 5.5724                 1.7693
 Frc consts  --      0.6998                 2.6814                 0.8588
 IR Inten    --      0.0000                 2.7658                 0.0000

                     46                     47                     48
                      A                      A                      A
 Frequencies --    914.3501               923.1954               924.6722
 Red. masses --      4.9639                 1.8944                 1.5587
 Frc consts  --      2.4451                 0.9513                 0.7852
 IR Inten    --      0.0000                 0.0000                64.9490

                     49                     50                     51
                      A                      A                      A
 Frequencies --    974.2679               974.5789               995.2596
 Red. masses --      1.3427                 1.3472                 1.2995
 Frc consts  --      0.7509                 0.7539                 0.7584
 IR Inten    --      0.0000                 4.7520                 0.0000

                     52                     53                     54
                      A                      A                      A
 Frequencies --    995.2604              1019.8848              1022.2004
 Red. masses --      1.2996                 2.1317                 2.0994
 Frc consts  --      0.7585                 1.3064                 1.2924
 IR Inten    --      0.0000                 7.8789                 0.0000

                     55                     56                     57
                      A                      A                      A
 Frequencies --   1111.0797              1128.2869              1133.1053
 Red. masses --      1.3736                 1.5212                 1.3605
 Frc consts  --      0.9990                 1.1410                 1.0292
 IR Inten    --      5.5667                10.9686                 0.0000

                     58                     59                     60
                      A                      A                      A
 Frequencies --   1140.1199              1143.9270              1154.1881
 Red. masses --      1.0557                 1.0850                 1.1351
 Frc consts  --      0.8085                 0.8365                 0.8909
 IR Inten    --      0.0000                 0.0353                 0.0000

                     61                     62                     63
                      A                      A                      A
 Frequencies --   1171.9857              1172.4759              1227.1337
 Red. masses --      1.2866                 1.3467                 1.8343
 Frc consts  --      1.0412                 1.0908                 1.6275
 IR Inten    --      2.0486                 0.0000                 0.0000

                     64                     65                     66
                      A                      A                      A
 Frequencies --   1235.0777              1240.5085              1243.0212
 Red. masses --      1.9071                 1.3377                 1.5632
 Frc consts  --      1.7140                 1.2129                 1.4231
 IR Inten    --      0.6480                 0.0000                 0.0982

                     67                     68                     69
                      A                      A                      A
 Frequencies --   1292.9853              1312.6130              1338.1061
 Red. masses --      4.9543                 4.8031                 3.1191
 Frc consts  --      4.8800                 4.8757                 3.2905
 IR Inten    --      0.0000                16.7962                 0.0000

                     70                     71                     72
                      A                      A                      A
 Frequencies --   1349.9699              1359.3274              1394.2579
 Red. masses --      3.1398                 2.4370                 2.1395
 Frc consts  --      3.3713                 2.6531                 2.4505
 IR Inten    --      5.6882                 5.6807                 0.0000

                     73                     74                     75
                      A                      A                      A
 Frequencies --   1421.1518              1447.7579              1464.0946
 Red. masses --      2.2006                 7.3024                 7.7026
 Frc consts  --      2.6186                 9.0179                 9.7280
 IR Inten    --      2.0584                 0.0000                 0.5820

                     76                     77                     78
                      A                      A                      A
 Frequencies --   1475.3134              1489.2344              1489.6869
 Red. masses --      6.4051                 5.7088                 5.5184
 Frc consts  --      8.2138                 7.4597                 7.2153
 IR Inten    --      0.0000                 0.2371                 2.5280

                     79                     80                     81
                      A                      A                      A
 Frequencies --   1490.9959              1556.4541              1584.4958
 Red. masses --      3.7005                 6.1361                 7.4989
 Frc consts  --      4.8469                 8.7582                11.0925
 IR Inten    --      0.0000                 2.2969                 0.0000

                     82                     83                     84
                      A                      A                      A
 Frequencies --   1605.8703              1607.5931              1610.4819
 Red. masses --      7.9957                 7.5555                 6.8688
 Frc consts  --     12.1486                11.5045                10.4964
 IR Inten    --      0.0000                 2.5472                 0.0000

                     85                     86                     87
                      A                      A                      A
 Frequencies --   1661.3418              1663.3070              1700.6684
 Red. masses --      7.4680                 7.1729                 7.0508
 Frc consts  --     12.1443                11.6920                12.0151
 IR Inten    --      0.0000                 0.2034                 0.0000

                     88                     89                     90
                      A                      A                      A
 Frequencies --   1703.7246              3164.2055              3164.4540
 Red. masses --      7.2751                 1.0906                 1.0908
 Frc consts  --     12.4419                 6.4334                 6.4356
 IR Inten    --      8.3888                 0.0000                31.3594

                     91                     92                     93
                      A                      A                      A
 Frequencies --   3165.6082              3165.9550              3166.3151
 Red. masses --      1.0907                 1.0906                 1.0915
 Frc consts  --      6.4396                 6.4404                 6.4472
 IR Inten    --     24.8876                 8.2637                 0.0000

                     94                     95                     96
                      A                      A                      A
 Frequencies --   3167.8341              3170.4713              3170.5223
 Red. masses --      1.0902                 1.0848                 1.0849
 Frc consts  --      6.4456                 6.4249                 6.4253
 IR Inten    --      0.0000                 4.8989                 0.0000

                     97                     98                     99
                      A                      A                      A
 Frequencies --   3174.6127              3174.7499              3188.7576
 Red. masses --      1.0879                 1.0879                 1.0956
 Frc consts  --      6.4598                 6.4605                 6.5634
 IR Inten    --      3.7697                 0.0000                 0.0000

                    100                    101                    102
                      A                      A                      A
 Frequencies --   3188.7735              3200.0875              3200.2649
 Red. masses --      1.0956                 1.0995                 1.0995
 Frc consts  --      6.5635                 6.6340                 6.6347
 IR Inten    --     59.2672                88.2996                 0.0000

 - Thermochemistry -
 -------------------
 Temperature   298.150 Kelvin.  Pressure   1.00000 Atm.
 Atom     1 has atomic number  6 and mass  12.00000

 Molecular mass:   278.10955 amu.
 Principal axes and moments of inertia in atomic units:
                           1         2         3
     Eigenvalues --  1362.18619********************
           X            1.00000   0.00000   0.00000
           Y            0.00000   1.00000   0.00000
           Z            0.00000   0.00000   1.00000
 This molecule is an asymmetric top.
 Rotational symmetry number  1.
 Warning -- assumption of classical behavior for rotation
           may cause significant error
 Rotational temperatures (Kelvin)      0.06358     0.00566     0.00520
 Rotational constants (GHZ):           1.32489     0.11796     0.10832
 Zero-point vibrational energy     750243.1 (Joules/Mol)
                                  179.31240 (Kcal/Mol)
 Warning -- explicit consideration of  24 degrees of freedom as
           vibrations may cause significant error
 Vibrational temperatures:     61.99   108.77   151.34   175.77   218.56
          (Kelvin)            280.20   338.12   350.18   378.24   423.78
                              504.79   507.53   550.81   631.74   675.48
                              679.55   692.18   698.60   701.12   721.51
                              752.97   794.33   823.93   873.76   904.93
                              913.97  1034.22  1046.69  1074.43  1082.55
                             1088.75  1096.83  1112.33  1118.23  1123.25
                             1153.99  1187.33  1218.37  1218.42  1226.71
                             1263.89  1268.34  1284.71  1300.26  1305.89
                             1315.54  1328.27  1330.40  1401.75  1402.20
                             1431.95  1431.96  1467.38  1470.72  1598.59
                             1623.35  1630.28  1640.38  1645.85  1660.62
                             1686.22  1686.93  1765.57  1777.00  1784.81
                             1788.43  1860.32  1888.55  1925.23  1942.30
                             1955.77  2006.02  2044.72  2083.00  2106.50
                             2122.64  2142.67  2143.32  2145.21  2239.39
                             2279.73  2310.49  2312.97  2317.12  2390.30
                             2393.12  2446.88  2451.28  4552.58  4552.94
                             4554.60  4555.10  4555.62  4557.80  4561.60
                             4561.67  4567.55  4567.75  4587.91  4587.93
                             4604.21  4604.46

 Zero-point correction=                           0.285753 (Hartree/Particle)
 Thermal correction to Energy=                    0.300678
 Thermal correction to Enthalpy=                  0.301622
 Thermal correction to Gibbs Free Energy=         0.244140
 Sum of electronic and zero-point Energies=           -845.872445
 Sum of electronic and thermal Energies=              -845.857520
 Sum of electronic and thermal Enthalpies=            -845.856575
 Sum of electronic and thermal Free Energies=         -845.914057

                     E (Thermal)             CV                S
                      KCal/Mol        Cal/Mol-Kelvin    Cal/Mol-Kelvin
 Total                  188.678             64.915            120.980
 Electronic               0.000              0.000              0.000
 Translational            0.889              2.981             42.767
 Rotational               0.889              2.981             34.206
 Vibrational            186.901             58.953             44.007
 Vibration     1          0.595              1.980              5.112
 Vibration     2          0.599              1.965              4.002
 Vibration     3          0.605              1.945              3.356
 Vibration     4          0.610              1.931              3.066
 Vibration     5          0.619              1.901              2.648
 Vibration     6          0.635              1.847              2.182
 Vibration     7          0.655              1.787              1.840
 Vibration     8          0.659              1.774              1.778
 Vibration     9          0.670              1.741              1.643
 Vibration    10          0.689              1.684              1.448
 Vibration    11          0.728              1.574              1.162
 Vibration    12          0.729              1.570              1.154
 Vibration    13          0.752              1.507              1.028
 Vibration    14          0.799              1.385              0.830
 Vibration    15          0.827              1.318              0.739
 Vibration    16          0.829              1.311              0.731
 Vibration    17          0.837              1.292              0.707
 Vibration    18          0.842              1.282              0.695
 Vibration    19          0.843              1.278              0.691
 Vibration    20          0.857              1.247              0.654
 Vibration    21          0.878              1.198              0.602
 Vibration    22          0.907              1.135              0.540
 Vibration    23          0.929              1.090              0.499
 Vibration    24          0.966              1.016              0.437

 Optimization completed.
    -- Stationary point found.
 Normal termination of Gaussian 09 at Fri Jul  7 16:38:18 2017.
