 Gaussian 09, Revision E.01,
 Gaussian 09:  ES64L-G09RevE.01 30-Nov-2015

 -----------------------------------
 # opt cc-pvtz geom=connectivity m06
 -----------------------------------

 -------------------
 Title Card Required
 -------------------
 Symbolic Z-matrix:
 Charge =  0 Multiplicity = 1

 SCF Done:  E(RM06) =  -847.518037381     A.U. after   20 cycles
 SCF Done:  E(RM06) =  -847.520522647     A.U. after   16 cycles
 SCF Done:  E(RM06) =  -847.520555652     A.U. after    9 cycles
 Optimization completed.
    -- Stationary point found.

                         Standard orientation:
 ---------------------------------------------------------------------
 Center     Atomic      Atomic             Coordinates (Angstroms)
 Number     Number       Type             X           Y           Z
 ---------------------------------------------------------------------
      1          6           0        4.988009    1.400965    0.068746
      2          6           0        3.726027    0.725105    0.035974
      3          6           0        3.726025   -0.725107   -0.035999
      4          6           0        4.988006   -1.400970   -0.068759
      5          6           0        6.148553   -0.714833   -0.035029
      6          6           0        6.148555    0.714825    0.035027
      7          1           0        4.983980    2.483376    0.121677
      8          1           0        4.983975   -2.483381   -0.121690
      9          1           0        7.093703   -1.241409   -0.060805
     10          1           0        7.093706    1.241398    0.060813
     11          6           0        2.538359    1.399755    0.070309
     12          6           0        1.289668    0.727905    0.037655
     13          6           0        1.289666   -0.727901   -0.037703
     14          6           0        2.538356   -1.399754   -0.070345
     15          1           0        2.540925    2.483550    0.124227
     16          1           0        2.540921   -2.483549   -0.124260
     17          6           0        0.096726    1.401982    0.074590
     18          6           0       -1.151473    0.731317    0.041337
     19          6           0       -1.151476   -0.731308   -0.041396
     20          6           0        0.096723   -1.401975   -0.074647
     21          1           0        0.099377    2.485573    0.129561
     22          1           0        0.099375   -2.485567   -0.129612
     23          6           0       -2.340039    1.407568    0.065299
     24          6           0       -2.340042   -1.407557   -0.065352
     25          1           0       -2.335920    2.492163    0.095068
     26          1           0       -2.335926   -2.492151   -0.095156
     27          6           0       -4.767759    1.401065   -0.159248
     28          6           0       -6.031704    0.649157   -0.389625
     29          6           0       -6.031694   -0.649172    0.389794
     30          6           0       -4.767744   -1.401060    0.159332
     31          1           0       -4.762147    2.482701   -0.229287
     32          1           0       -6.111304    0.424814   -1.467916
     33          1           0       -6.906856   -1.250003    0.139279
     34          1           0       -4.762115   -2.482695    0.229394
     35          6           0       -3.596667   -0.737733    0.005079
     36          6           0       -3.596664    0.737746   -0.005081
     37          1           0       -6.111300   -0.424922    1.468097
     38          1           0       -6.906868    1.249992   -0.139143
 ---------------------------------------------------------------------

 The electronic state is 1-A.
 Alpha  occ. eigenvalues --  -10.25349 -10.25315 -10.25309 -10.25291 -10.25273
 Alpha  occ. eigenvalues --  -10.25252 -10.25034 -10.24997 -10.24554 -10.24525
 Alpha  occ. eigenvalues --  -10.24391 -10.24388 -10.24374 -10.24350 -10.24338
 Alpha  occ. eigenvalues --  -10.24333 -10.24330 -10.24326 -10.24294 -10.24290
 Alpha  occ. eigenvalues --  -10.24283 -10.24265  -0.90180  -0.88663  -0.86352
 Alpha  occ. eigenvalues --   -0.83186  -0.80683  -0.79226  -0.79130  -0.76726
 Alpha  occ. eigenvalues --   -0.75326  -0.73520  -0.69581  -0.68481  -0.63997
 Alpha  occ. eigenvalues --   -0.62961  -0.61620  -0.60359  -0.59432  -0.59386
 Alpha  occ. eigenvalues --   -0.53876  -0.53237  -0.52970  -0.49691  -0.49377
 Alpha  occ. eigenvalues --   -0.48527  -0.46926  -0.46434  -0.45425  -0.45311
 Alpha  occ. eigenvalues --   -0.43859  -0.43645  -0.42845  -0.42179  -0.42104
 Alpha  occ. eigenvalues --   -0.41534  -0.40958  -0.40647  -0.39584  -0.38890
 Alpha  occ. eigenvalues --   -0.37863  -0.36508  -0.35892  -0.35390  -0.34387
 Alpha  occ. eigenvalues --   -0.33756  -0.32923  -0.32483  -0.31316  -0.30066
 Alpha  occ. eigenvalues --   -0.26391  -0.26360  -0.21579  -0.16254
 Alpha virt. eigenvalues --   -0.10632  -0.04868  -0.00065   0.00136   0.03000
 Alpha virt. eigenvalues --    0.03841   0.03892   0.04000   0.04416   0.05030
 Alpha virt. eigenvalues --    0.05832   0.06097   0.06811   0.07056   0.08325

 Mulliken charges:
               1
     1  C   -0.160937
     2  C    0.134522
     3  C    0.134522
     4  C   -0.160937
     5  C   -0.150834
     6  C   -0.150834
     7  H    0.130261
     8  H    0.130261
     9  H    0.120475
    10  H    0.120475
    11  C   -0.288701
    12  C    0.148039
    13  C    0.148038
    14  C   -0.288700
    15  H    0.142904
    16  H    0.142904
    17  C   -0.299155
    18  C    0.139699
    19  C    0.139699
    20  C   -0.299152
    21  H    0.142276
    22  H    0.142276
    23  C   -0.273919
    24  C   -0.273917
    25  H    0.142650
    26  H    0.142650
    27  C   -0.236537
    28  C   -0.244408
    29  C   -0.244408
    30  C   -0.236544
    31  H    0.142912
    32  H    0.151967
    33  H    0.126294
    34  H    0.142912
    35  C    0.132501
    36  C    0.132491
    37  H    0.151965
    38  H    0.126288
 Sum of Mulliken charges =  -0.00000

 Dipole moment (field-independent basis, Debye):
    X=             -0.9563    Y=             -0.0000    Z=              0.0001  Tot=              0.9563
 Quadrupole moment (field-independent basis, Debye-Ang):
   XX=           -107.1310   YY=           -114.8507   ZZ=           -134.8750
   XY=              0.0001   XZ=             -0.0003   YZ=              0.0735

 Normal termination of Gaussian 09 at Mon Aug 14 21:54:08 2017.
