 Gaussian 09, Revision D.01,
 Gaussian 09:  ES64L-G09RevD.01 24-Apr-2013

 ----------------------------------------
 # opt freq cc-pvdz geom=connectivity m06
 ----------------------------------------

 -------------------
 Title Card Required
 -------------------
 Symbolic Z-matrix:
 Charge =  0 Multiplicity = 1

 SCF Done:  E(RM06) =  -847.239459444     A.U. after   23 cycles
 SCF Done:  E(RM06) =  -847.271609377     A.U. after   17 cycles
 SCF Done:  E(RM06) =  -847.283971417     A.U. after   17 cycles
 SCF Done:  E(RM06) =  -847.286487880     A.U. after   16 cycles
 SCF Done:  E(RM06) =  -847.287058736     A.U. after   15 cycles
 SCF Done:  E(RM06) =  -847.287166901     A.U. after   14 cycles
 SCF Done:  E(RM06) =  -847.287179802     A.U. after   13 cycles
 SCF Done:  E(RM06) =  -847.287181733     A.U. after    9 cycles
 SCF Done:  E(RM06) =  -847.287181925     A.U. after    8 cycles
 Optimization completed.
    -- Stationary point found.
 Normal termination of Gaussian 09 at Fri Jul  7 16:30:02 2017.

 -----------------------------------------------------------------
 #N Geom=AllCheck Guess=TCheck SCRF=Check GenChk RM06/CC-pVDZ Freq
 -----------------------------------------------------------------

 Structure from the checkpoint file:  "201707_ccpVDZ_m06_12Hpentacene.chk"
 -------------------
 Title Card Required
 -------------------
 Charge =  0 Multiplicity = 1

                         Standard orientation:
 ---------------------------------------------------------------------
 Center     Atomic      Atomic             Coordinates (Angstroms)
 Number     Number       Type             X           Y           Z
 ---------------------------------------------------------------------
      1          6           0        5.014515    1.408435    0.069652
      2          6           0        3.747828    0.728252    0.036620
      3          6           0        3.747814   -0.728260   -0.036502
      4          6           0        5.014498   -1.408466   -0.069403
      5          6           0        6.183946   -0.717755   -0.035172
      6          6           0        6.183956    0.717704    0.035541
      7          1           0        5.009501    2.501315    0.123250
      8          1           0        5.009474   -2.501346   -0.123022
      9          1           0        7.137817   -1.250713   -0.061084
     10          1           0        7.137834    1.250643    0.061546
     11          6           0        2.551375    1.407252    0.071383
     12          6           0        1.297771    0.731061    0.038063
     13          6           0        1.297754   -0.731030   -0.038272
     14          6           0        2.551359   -1.407243   -0.071405
     15          1           0        2.553095    2.501284    0.126140
     16          1           0        2.553076   -2.501275   -0.126165
     17          6           0        0.096248    1.409576    0.074566
     18          6           0       -1.156989    0.734537    0.040432
     19          6           0       -1.157006   -0.734484   -0.040887
     20          6           0        0.096233   -1.409532   -0.074942
     21          1           0        0.098517    2.503422    0.129786
     22          1           0        0.098508   -2.503380   -0.130137
     23          6           0       -2.354044    1.415391    0.062745
     24          6           0       -2.354063   -1.415333   -0.063306
     25          1           0       -2.349465    2.510335    0.091150
     26          1           0       -2.349522   -2.510266   -0.091972
     27          6           0       -4.796321    1.408060   -0.158516
     28          6           0       -6.063423    0.651712   -0.388674
     29          6           0       -6.063312   -0.651771    0.389539
     30          6           0       -4.796246   -1.408039    0.158642
     31          1           0       -4.789392    2.500436   -0.229575
     32          1           0       -6.143442    0.428211   -1.478045
     33          1           0       -6.947824   -1.257817    0.137720
     34          1           0       -4.789403   -2.500453    0.229262
     35          6           0       -3.615750   -0.740947    0.006767
     36          6           0       -3.615765    0.740987   -0.007045
     37          1           0       -6.143196   -0.428824    1.478961
     38          1           0       -6.947843    1.257800   -0.136779
 ---------------------------------------------------------------------

 SCF Done:  E(RM06) =  -847.287181925     A.U. after    1 cycles

 The electronic state is 1-A.
 Alpha  occ. eigenvalues --  -10.26687 -10.26661 -10.26659 -10.26631 -10.26617
 Alpha  occ. eigenvalues --  -10.26591 -10.26314 -10.26290 -10.25941 -10.25924
 Alpha  occ. eigenvalues --  -10.25914 -10.25903 -10.25845 -10.25840 -10.25829
 Alpha  occ. eigenvalues --  -10.25826 -10.25801 -10.25799 -10.25787 -10.25787
 Alpha  occ. eigenvalues --  -10.25747 -10.25744  -0.90069  -0.88540  -0.86239
 Alpha  occ. eigenvalues --   -0.83091  -0.80639  -0.79143  -0.79071  -0.76666
 Alpha  occ. eigenvalues --   -0.75315  -0.73467  -0.69537  -0.68418  -0.63847
 Alpha  occ. eigenvalues --   -0.62926  -0.61397  -0.60171  -0.59330  -0.59300
 Alpha  occ. eigenvalues --   -0.53769  -0.52929  -0.52637  -0.49384  -0.49127
 Alpha  occ. eigenvalues --   -0.48331  -0.46698  -0.46194  -0.45277  -0.45011
 Alpha  occ. eigenvalues --   -0.43688  -0.43389  -0.42579  -0.41956  -0.41892
 Alpha  occ. eigenvalues --   -0.41369  -0.40791  -0.40479  -0.39413  -0.38619
 Alpha  occ. eigenvalues --   -0.37628  -0.36336  -0.35728  -0.35232  -0.34222
 Alpha  occ. eigenvalues --   -0.33628  -0.32765  -0.32340  -0.31180  -0.29921
 Alpha  occ. eigenvalues --   -0.26301  -0.26226  -0.21468  -0.16180
 Alpha virt. eigenvalues --   -0.10679  -0.04940  -0.00056   0.00156   0.03349
 Alpha virt. eigenvalues --    0.04552   0.05901   0.07253   0.07277   0.07497
 Alpha virt. eigenvalues --    0.08633   0.09415   0.10062   0.10650   0.11046

 Mulliken charges:
               1
     1  C    0.006053
     2  C    0.033474
     3  C    0.033475
     4  C    0.006050
     5  C   -0.001504
     6  C   -0.001504
     7  H   -0.011841
     8  H   -0.011841
     9  H    0.004253
    10  H    0.004253
    11  C   -0.038884
    12  C    0.062586
    13  C    0.062583
    14  C   -0.038891
    15  H   -0.021165
    16  H   -0.021165
    17  C   -0.045597
    18  C    0.065027
    19  C    0.065011
    20  C   -0.045593
    21  H   -0.023711
    22  H   -0.023710
    23  C   -0.044097
    24  C   -0.044079
    25  H   -0.021360
    26  H   -0.021360
    27  C   -0.114688
    28  C    0.000700
    29  C    0.000684
    30  C   -0.114743
    31  H   -0.007533
    32  H    0.050340
    33  H    0.038169
    34  H   -0.007536
    35  C    0.069841
    36  C    0.069804
    37  H    0.050336
    38  H    0.038163
 Sum of Mulliken charges =   0.00000

 Dipole moment (field-independent basis, Debye):
    X=             -0.9625    Y=              0.0000    Z=              0.0001  Tot=              0.9625
 Quadrupole moment (field-independent basis, Debye-Ang):
   XX=           -105.9436   YY=           -114.3168   ZZ=           -134.9554
   XY=              0.0003   XZ=             -0.0006   YZ=              0.2092

  Exact polarizability: 607.267  -0.002 281.416   0.002  -0.031  91.455
 Approx polarizability: 853.334  -0.009 638.046   0.009   2.102 152.449

                      1                      2                      3
                      A                      A                      A
 Frequencies --     39.1326                64.2990                99.9854
 Red. masses --      5.3429                 3.6866                 5.1521
 Frc consts  --      0.0048                 0.0090                 0.0303
 IR Inten    --      0.5002                 0.0018                 0.0215

                      4                      5                      6
                      A                      A                      A
 Frequencies --    117.1575               133.8357               187.1462
 Red. masses --      5.0597                 3.5444                 4.5363
 Frc consts  --      0.0409                 0.0374                 0.0936
 IR Inten    --      3.1633                 0.0415                 0.9461

                      7                      8                      9
                      A                      A                      A
 Frequencies --    208.4637               225.6079               261.3295
 Red. masses --      3.1258                 4.6551                 5.9754
 Frc consts  --      0.0800                 0.1396                 0.2404
 IR Inten    --      0.3179                 2.2360                 0.0022

                     10                     11                     12
                      A                      A                      A
 Frequencies --    272.7480               294.1770               322.5438
 Red. masses --      2.9104                 2.8167                 3.7285
 Frc consts  --      0.1276                 0.1436                 0.2285
 IR Inten    --      0.0542                 0.8500                 1.2156

                     13                     14                     15
                      A                      A                      A
 Frequencies --    347.1711               373.5037               414.3141
 Red. masses --      4.1259                 3.3451                 3.2357
 Frc consts  --      0.2930                 0.2750                 0.3272
 IR Inten    --      1.9249                 0.5086                11.0424

                     16                     17                     18
                      A                      A                      A
 Frequencies --    439.8104               455.4635               459.8693
 Red. masses --      3.5428                 2.5634                 3.4990
 Frc consts  --      0.4038                 0.3133                 0.4360
 IR Inten    --      3.7343                12.6376                 2.5955

                     19                     20                     21
                      A                      A                      A
 Frequencies --    464.5374               470.8938               481.3706
 Red. masses --      2.5926                 3.0724                 5.9903
 Frc consts  --      0.3296                 0.4014                 0.8178
 IR Inten    --      5.5319                 0.6990                10.6959

                     22                     23                     24
                      A                      A                      A
 Frequencies --    525.6468               528.5929               586.1548
 Red. masses --      3.5712                 4.2754                 5.6463
 Frc consts  --      0.5814                 0.7038                 1.1430
 IR Inten    --      0.0035                 0.6233                 0.1502

                     25                     26                     27
                      A                      A                      A
 Frequencies --    620.6387               629.8484               631.3720
 Red. masses --      6.5446                 2.7649                 7.0611
 Frc consts  --      1.4853                 0.6463                 1.6584
 IR Inten    --      2.1168                 2.3761                 0.5369

                     28                     29                     30
                      A                      A                      A
 Frequencies --    696.8622               732.2909               735.3966
 Red. masses --      5.9521                 3.6897                 2.5005
 Frc consts  --      1.7030                 1.1658                 0.7968
 IR Inten    --      0.0169                 2.1805                10.3117

                     31                     32                     33
                      A                      A                      A
 Frequencies --    740.4571               742.0970               752.7138
 Red. masses --      4.2649                 1.3836                 5.4214
 Frc consts  --      1.3777                 0.4489                 1.8098
 IR Inten    --      0.0513                21.9039                 0.1870

                     34                     35                     36
                      A                      A                      A
 Frequencies --    756.4572               757.7511               771.3483
 Red. masses --      2.7830                 1.4925                 2.5999
 Frc consts  --      0.9383                 0.5049                 0.9114
 IR Inten    --      1.1411                 2.0919                 0.0083

                     37                     38                     39
                      A                      A                      A
 Frequencies --    780.9501               786.4052               821.5431
 Red. masses --      1.2560                 3.2526                 5.3444
 Frc consts  --      0.4513                 1.1852                 2.1252
 IR Inten    --      5.9596                 1.8850                 1.1685

                     40                     41                     42
                      A                      A                      A
 Frequencies --    834.9148               841.2098               860.8228
 Red. masses --      1.4663                 1.3175                 1.5461
 Frc consts  --      0.6022                 0.5493                 0.6750
 IR Inten    --     14.3201                 0.1579                 2.1769

                     43                     44                     45
                      A                      A                      A
 Frequencies --    863.4328               882.7971               891.0938
 Red. masses --      2.0467                 1.5615                 1.7542
 Frc consts  --      0.8990                 0.7170                 0.8207
 IR Inten    --      0.0032                 3.5605                 1.0087

                     46                     47                     48
                      A                      A                      A
 Frequencies --    906.0032               906.7632               914.1646
 Red. masses --      3.8227                 2.0783                 2.9542
 Frc consts  --      1.8487                 1.0068                 1.4546
 IR Inten    --      2.3430                 1.1276                 5.3081

                     49                     50                     51
                      A                      A                      A
 Frequencies --    914.2423               918.1310               973.9046
 Red. masses --      1.9278                 1.7533                 1.3367
 Frc consts  --      0.9494                 0.8708                 0.7470
 IR Inten    --      0.3740                62.9542                 1.8094

                     52                     53                     54
                      A                      A                      A
 Frequencies --    991.9776              1000.5071              1012.8114
 Red. masses --      1.3007                 1.9731                 2.1533
 Frc consts  --      0.7541                 1.1637                 1.3014
 IR Inten    --      0.0009                10.9220                 5.2697

                     55                     56                     57
                      A                      A                      A
 Frequencies --   1018.5856              1081.4734              1132.3968
 Red. masses --      2.1871                 1.2679                 1.4394
 Frc consts  --      1.3370                 0.8737                 1.0875
 IR Inten    --     15.9136                14.8674                10.8222

                     58                     59                     60
                      A                      A                      A
 Frequencies --   1135.4983              1135.7691              1144.3650
 Red. masses --      1.1378                 1.1528                 1.1433
 Frc consts  --      0.8644                 0.8761                 0.8822
 IR Inten    --      3.7997                38.4444                 1.3374

                     61                     62                     63
                      A                      A                      A
 Frequencies --   1150.3551              1170.6954              1171.4908
 Red. masses --      1.1610                 1.2980                 1.3074
 Frc consts  --      0.9052                 1.0482                 1.0571
 IR Inten    --      0.0807                 0.8853                 3.0817

                     64                     65                     66
                      A                      A                      A
 Frequencies --   1207.3204              1216.7948              1233.7851
 Red. masses --      1.6978                 1.8046                 1.4981
 Frc consts  --      1.4581                 1.5742                 1.3436
 IR Inten    --     12.7570                 0.0381                 0.0150

                     67                     68                     69
                      A                      A                      A
 Frequencies --   1244.3144              1252.6003              1280.3681
 Red. masses --      1.3538                 1.4436                 4.0779
 Frc consts  --      1.2350                 1.3345                 3.9387
 IR Inten    --     26.6012                 0.0368                 5.2956

                     70                     71                     72
                      A                      A                      A
 Frequencies --   1303.9447              1305.4355              1338.6729
 Red. masses --      2.5833                 3.8777                 3.5349
 Frc consts  --      2.5878                 3.8934                 3.7323
 IR Inten    --      0.5487                19.0945                18.3814

                     73                     74                     75
                      A                      A                      A
 Frequencies --   1353.2404              1355.3971              1395.7853
 Red. masses --      1.8305                 2.0088                 1.3120
 Frc consts  --      1.9750                 2.1743                 1.5060
 IR Inten    --     44.3313                28.3266                 5.1742

                     76                     77                     78
                      A                      A                      A
 Frequencies --   1399.1648              1400.4817              1410.4040
 Red. masses --      1.8168                 1.7794                 1.3510
 Frc consts  --      2.0955                 2.0563                 1.5834
 IR Inten    --      2.9570                 2.1238                 3.8668

                     79                     80                     81
                      A                      A                      A
 Frequencies --   1411.8423              1435.7433              1452.4978
 Red. masses --      3.7772                 3.9309                 5.4801
 Frc consts  --      4.4360                 4.7742                 6.8119
 IR Inten    --      0.5313                 0.6507                 0.4879

                     82                     83                     84
                      A                      A                      A
 Frequencies --   1486.5788              1522.0159              1552.1632
 Red. masses --      4.7755                 9.0079                 8.4503
 Frc consts  --      6.2180                12.2945                11.9949
 IR Inten    --      2.4996                 0.0000                 0.0756

                     85                     86                     87
                      A                      A                      A
 Frequencies --   1572.2945              1591.0361              1600.3484
 Red. masses --      7.0686                 7.8332                 7.6788
 Frc consts  --     10.2956                11.6829                11.5870
 IR Inten    --      1.5326                 0.0257                 0.0977

                     88                     89                     90
                      A                      A                      A
 Frequencies --   1609.3001              1626.5812              1655.3798
 Red. masses --      7.8109                 6.9762                 7.7025
 Frc consts  --     11.9186                10.8747                12.4358
 IR Inten    --      2.3635                24.9973                 0.0408

                     91                     92                     93
                      A                      A                      A
 Frequencies --   1682.5947              1705.5483              2924.2144
 Red. masses --      8.0356                 7.1282                 1.0717
 Frc consts  --     13.4038                12.2169                 5.3995
 IR Inten    --      0.1700                 4.3363                65.7415

                     94                     95                     96
                      A                      A                      A
 Frequencies --   2934.1342              3079.7961              3081.9390
 Red. masses --      1.0716                 1.0904                 1.0886
 Frc consts  --      5.4353                 6.0939                 6.0919
 IR Inten    --     60.4012                10.9362                58.5345

                     97                     98                     99
                      A                      A                      A
 Frequencies --   3160.6159              3162.0991              3162.4730
 Red. masses --      1.0907                 1.0905                 1.0910
 Frc consts  --      6.4195                 6.4244                 6.4285
 IR Inten    --     12.4054                11.9975                 5.4274

                    100                    101                    102
                      A                      A                      A
 Frequencies --   3163.8926              3164.0666              3166.0517
 Red. masses --      1.0905                 1.0905                 1.0904
 Frc consts  --      6.4315                 6.4325                 6.4395
 IR Inten    --     20.1965                 3.1856                 0.3861

                    103                    104                    105
                      A                      A                      A
 Frequencies --   3166.3496              3167.1853              3168.4354
 Red. masses --      1.0907                 1.0853                 1.0908
 Frc consts  --      6.4428                 6.4141                 6.4516
 IR Inten    --     16.7508                 2.0338                 1.1857

                    106                    107                    108
                      A                      A                      A
 Frequencies --   3170.8010              3186.8610              3198.5954
 Red. masses --      1.0880                 1.0954                 1.0993
 Frc consts  --      6.4446                 6.5544                 6.6268
 IR Inten    --      3.6148                31.0581                45.6278

 - Thermochemistry -
 -------------------
 Temperature   298.150 Kelvin.  Pressure   1.00000 Atm.
 Atom     1 has atomic number  6 and mass  12.00000

 Molecular mass:   280.12520 amu.
 Principal axes and moments of inertia in atomic units:
                           1         2         3
     Eigenvalues --  1400.23017********************
           X            1.00000   0.00000   0.00000
           Y            0.00000   1.00000  -0.00066
           Z            0.00000   0.00066   1.00000
 This molecule is an asymmetric top.
 Rotational symmetry number  1.
 Warning -- assumption of classical behavior for rotation
           may cause significant error
 Rotational temperatures (Kelvin)      0.06186     0.00554     0.00511
 Rotational constants (GHZ):           1.28889     0.11552     0.10644
 Zero-point vibrational energy     802948.1 (Joules/Mol)
                                  191.90920 (Kcal/Mol)
 Warning -- explicit consideration of  25 degrees of freedom as
           vibrations may cause significant error
 Vibrational temperatures:     56.30    92.51   143.86   168.56   192.56
          (Kelvin)            269.26   299.93   324.60   375.99   392.42
                              423.25   464.07   499.50   537.39   596.10
                              632.79   655.31   661.65   668.36   677.51
                              692.58   756.29   760.53   843.35   892.96
                              906.21   908.40  1002.63  1053.60  1058.07
                             1065.35  1067.71  1082.99  1088.37  1090.23
                             1109.80  1123.61  1131.46  1182.02  1201.25
                             1210.31  1238.53  1242.29  1270.15  1282.08
                             1303.53  1304.63  1315.28  1315.39  1320.98
                             1401.23  1427.23  1439.50  1457.21  1465.52
                             1556.00  1629.26  1633.73  1634.12  1646.48
                             1655.10  1684.37  1685.51  1737.06  1750.69
                             1775.14  1790.29  1802.21  1842.16  1876.08
                             1878.23  1926.05  1947.01  1950.11  2008.22
                             2013.08  2014.98  2029.25  2031.32  2065.71
                             2089.82  2138.85  2189.84  2233.21  2262.18
                             2289.14  2302.54  2315.42  2340.28  2381.72
                             2420.88  2453.90  4207.29  4221.56  4431.13
                             4434.22  4547.42  4549.55  4550.09  4552.13
                             4552.38  4555.24  4555.67  4556.87  4558.67
                             4562.07  4585.18  4602.06

 Zero-point correction=                           0.305827 (Hartree/Particle)
 Thermal correction to Energy=                    0.321682
 Thermal correction to Enthalpy=                  0.322626
 Thermal correction to Gibbs Free Energy=         0.263222
 Sum of electronic and zero-point Energies=           -846.981355
 Sum of electronic and thermal Energies=              -846.965500
 Sum of electronic and thermal Enthalpies=            -846.964555
 Sum of electronic and thermal Free Energies=         -847.023960

                     E (Thermal)             CV                S
                      KCal/Mol        Cal/Mol-Kelvin    Cal/Mol-Kelvin
 Total                  201.859             68.300            125.028
 Electronic               0.000              0.000              0.000
 Translational            0.889              2.981             42.788
 Rotational               0.889              2.981             34.272
 Vibrational            200.081             62.338             47.968
 Vibration     1          0.594              1.981              5.303
 Vibration     2          0.597              1.971              4.321
 Vibration     3          0.604              1.949              3.455
 Vibration     4          0.608              1.935              3.147
 Vibration     5          0.613              1.920              2.890
 Vibration     6          0.632              1.857              2.256
 Vibration     7          0.642              1.828              2.057
 Vibration     8          0.650              1.802              1.914
 Vibration     9          0.669              1.744              1.653
 Vibration    10          0.676              1.724              1.579
 Vibration    11          0.689              1.685              1.450
 Vibration    12          0.708              1.630              1.297
 Vibration    13          0.725              1.581              1.179
 Vibration    14          0.745              1.527              1.065
 Vibration    15          0.778              1.439              0.912
 Vibration    16          0.800              1.383              0.827
 Vibration    17          0.814              1.349              0.779
 Vibration    18          0.818              1.339              0.766
 Vibration    19          0.822              1.329              0.753
 Vibration    20          0.828              1.315              0.735
 Vibration    21          0.838              1.291              0.706
 Vibration    22          0.881              1.193              0.597
 Vibration    23          0.884              1.187              0.590
 Vibration    24          0.943              1.061              0.474
 Vibration    25          0.981              0.988              0.415

 Optimization completed.
    -- Stationary point found.
 Normal termination of Gaussian 09 at Fri Jul  7 16:54:54 2017.
