 Gaussian 09, Revision D.01,
 Gaussian 09:  ES64L-G09RevD.01 24-Apr-2013

 ---------------------------------------------------
 # opt=(calcfc,ts) aug-cc-pvtz geom=connectivity m06
 ---------------------------------------------------

 -------------------
 Title Card Required
 -------------------
 Symbolic Z-matrix:
 Charge = -1 Multiplicity = 1

 SCF Done:  E(RM06) =  -835.736573367     A.U. after   15 cycles

  Exact polarizability:   0.000   0.000   0.000   0.000   0.000   0.000
 Approx polarizability: 152.519 -10.118 203.021  -0.978  -1.066 153.313

 SCF Done:  E(RM06) =  -835.736565855     A.U. after   11 cycles
 SCF Done:  E(RM06) =  -835.736573124     A.U. after   11 cycles
 Optimization completed.
    -- Stationary point found.

                         Standard orientation:
 ---------------------------------------------------------------------
 Center     Atomic      Atomic             Coordinates (Angstroms)
 Number     Number       Type             X           Y           Z
 ---------------------------------------------------------------------
      1          6           0        2.547596    0.452800   -0.063061
      2          1           0        2.538497    0.526812   -1.133777
      3          1           0        3.461264    0.720693    0.432840
      4          6           0        1.268049    0.435922    0.700019
      5          1           0        1.321813   -0.313005    1.496119
      6          1           0        1.175169    1.425003    1.155250
      7          6           0        0.071664    0.170550   -0.186183
      8          1           0        0.043208    0.947445   -0.958652
      9          1           0        0.209998   -0.790191   -0.697297
     10          6           0       -1.237251    0.160731    0.574378
     11          1           0       -1.202317   -0.611810    1.354263
     12          1           0       -1.357942    1.115751    1.102316
     13         17           0        3.028955   -1.680978   -0.119570
     14          9           0        2.390410    2.516443   -0.341982
     15          6           0       -2.443874   -0.076902   -0.309642
     16          1           0       -2.479713    0.695440   -1.088672
     17          1           0       -2.323296   -1.029665   -0.841359
     18          6           0       -3.758519   -0.087495    0.444377
     19          1           0       -3.720478   -0.860014    1.220774
     20          1           0       -3.875056    0.864127    0.975166
     21          6           0       -4.951365   -0.323149   -0.458943
     22          1           0       -4.862512   -1.281079   -0.977749
     23          1           0       -5.894445   -0.328916    0.090986
     24          1           0       -5.017898    0.453316   -1.225355
 ---------------------------------------------------------------------

 The electronic state is 1-A.
 Alpha  occ. eigenvalues -- -101.52019 -24.44669 -10.15213 -10.15172 -10.14987
 Alpha  occ. eigenvalues --  -10.13647 -10.12349 -10.10308 -10.09540  -9.36934
 Alpha  occ. eigenvalues --   -7.07831  -7.07399  -7.07395  -0.85674  -0.72722
 Alpha  occ. eigenvalues --   -0.68636  -0.64754  -0.61093  -0.56697  -0.51225
 Alpha  occ. eigenvalues --   -0.48536  -0.45176  -0.39836  -0.35891  -0.35551
 Alpha  occ. eigenvalues --   -0.33747  -0.31429  -0.31142  -0.28897  -0.27508
 Alpha  occ. eigenvalues --   -0.27122  -0.25074  -0.24341  -0.22276  -0.21712
 Alpha  occ. eigenvalues --   -0.21213  -0.17197  -0.12850  -0.12723  -0.11136
 Alpha  occ. eigenvalues --   -0.11058  -0.10122
 Alpha virt. eigenvalues --    0.02560   0.04385   0.04592   0.05420   0.06994
 Alpha virt. eigenvalues --    0.07255   0.07641   0.07973   0.08503   0.08907
 Alpha virt. eigenvalues --    0.09360   0.09788   0.10362   0.10925   0.11619

 Mulliken charges:
               1
     1  C   -1.849118
     2  H    1.001664
     3  H    0.934663
     4  C   -1.763614
     5  H    1.094922
     6  H    0.886098
     7  C   -1.405602
     8  H    0.808694
     9  H    0.931871
    10  C   -1.695625
    11  H    0.845269
    12  H    0.887439
    13  Cl  -0.753221
    14  F   -0.741918
    15  C   -1.317277
    16  H    0.877990
    17  H    0.896001
    18  C   -1.487182
    19  H    0.829999
    20  H    0.828015
    21  C   -3.051594
    22  H    0.751063
    23  H    0.743055
    24  H    0.748409
 Sum of Mulliken charges =  -1.00000

 Dipole moment (field-independent basis, Debye):
    X=            -11.5728    Y=             -2.8246    Z=              1.3481  Tot=             11.9885
 Quadrupole moment (field-independent basis, Debye-Ang):
   XX=           -109.8350   YY=            -99.6971   ZZ=            -70.0540
   XY=             -4.4040   XZ=              3.4336   YZ=              2.4482

 Normal termination of Gaussian 09 at Wed Jul 12 11:39:28 2017.
