 Gaussian 09, Revision E.01,
 Gaussian 09:  ES64L-G09RevE.01 30-Nov-2015

 -----------------------------
 # hf/sto-3g geom=connectivity
 -----------------------------

 -------------------
 Title Card Required
 -------------------
 Symbolic Z-matrix:
 Charge =  0 Multiplicity = 1

                         Standard orientation:
 ---------------------------------------------------------------------
 Center     Atomic      Atomic             Coordinates (Angstroms)
 Number     Number       Type             X           Y           Z
 ---------------------------------------------------------------------
      1          6           0        6.450339   -1.191521    0.068239
      2          1           0        6.516998   -1.520614   -0.982807
      3          1           0        6.192789   -2.080215    0.669327
      4          1           0        7.455535   -0.864136    0.376398
      5          6           0        5.414081   -0.097728    0.235483
      6          1           0        5.386309    0.239746    1.289215
      7          1           0        5.708233    0.795077   -0.348959
      8          6           0        4.019694   -0.528820   -0.184466
      9          1           0        3.719276   -1.421918    0.399588
     10          1           0        4.040788   -0.865909   -1.240448
     11          6           0        2.971275    0.555924   -0.022038
     12          1           0        3.267544    1.447058   -0.610483
     13          1           0        2.945234    0.896592    1.031293
     14          6           0        1.573482    0.115781   -0.439553
     15          1           0        1.263129   -0.760371    0.160727
     16          1           0        1.615857   -0.235872   -1.490112
     17          6           0        0.555767    1.199939   -0.310870
     18          1           0        0.740818    2.112290   -0.901027
     19          6           0       -0.524436    1.160330    0.473255
     20          1           0       -0.379816    1.015717    1.556346
     21          6           0       -1.938431    1.262175    0.006406
     22          1           0       -1.958769    1.446891   -1.084356
     23          1           0       -2.424570    2.142902    0.472366
     24          6           0       -2.766214    0.025487    0.333897
     25          1           0       -2.723674   -0.167584    1.424344
     26          1           0       -2.298311   -0.860163   -0.138257
     27          6           0       -4.214779    0.134989   -0.104174
     28          1           0       -4.677510    1.023256    0.371254
     29          1           0       -4.256019    0.334240   -1.193941
     30          6           0       -5.043597   -1.097080    0.214538
     31          1           0       -4.575743   -1.980508   -0.260517
     32          1           0       -4.997423   -1.292654    1.303031
     33          6           0       -6.487863   -0.973389   -0.229288
     34          1           0       -7.075670   -1.873639    0.008606
     35          1           0       -6.983015   -0.116255    0.258143
     36          1           0       -6.557892   -0.810439   -1.318305
 ---------------------------------------------------------------------

 SCF Done:  E(RHF) =  -462.776646440     A.U. after   12 cycles

 The electronic state is 1-A.
 Alpha  occ. eigenvalues --  -11.04236 -11.04235 -11.04165 -11.04122 -11.03944
 Alpha  occ. eigenvalues --  -11.03861 -11.03465 -11.03452 -11.03416 -11.03255
 Alpha  occ. eigenvalues --  -11.00017 -10.99940  -1.05628  -1.04523  -1.01630
 Alpha  occ. eigenvalues --   -0.98574  -0.94313  -0.89417  -0.84801  -0.79173
 Alpha  occ. eigenvalues --   -0.76402  -0.75069  -0.74786  -0.68805  -0.62002
 Alpha  occ. eigenvalues --   -0.61435  -0.57916  -0.57457  -0.55924  -0.55086
 Alpha  occ. eigenvalues --   -0.53319  -0.53210  -0.51966  -0.51225  -0.49278
 Alpha  occ. eigenvalues --   -0.48350  -0.47093  -0.46246  -0.45330  -0.43695
 Alpha  occ. eigenvalues --   -0.42977  -0.42603  -0.42445  -0.41852  -0.41697
 Alpha  occ. eigenvalues --   -0.41519  -0.40123  -0.21244
 Alpha virt. eigenvalues --    0.24132   0.57034   0.57921   0.58052   0.58878
 Alpha virt. eigenvalues --    0.62490   0.63289   0.66266   0.66487   0.67023
 Alpha virt. eigenvalues --    0.67286   0.68414   0.69030   0.69519   0.70760

 Mulliken charges:
               1
     1  C   -0.166130
     2  H    0.052161
     3  H    0.052247
     4  H    0.054355
     5  C   -0.089296
     6  H    0.047759
     7  H    0.047520
     8  C   -0.090874
     9  H    0.044476
    10  H    0.043803
    11  C   -0.089716
    12  H    0.044484
    13  H    0.046021
    14  C   -0.097667
    15  H    0.052998
    16  H    0.059377
    17  C   -0.060939
    18  H    0.046669
    19  C   -0.060241
    20  H    0.045637
    21  C   -0.098409
    22  H    0.052890
    23  H    0.045457
    24  C   -0.087132
    25  H    0.048700
    26  H    0.048903
    27  C   -0.089434
    28  H    0.046933
    29  H    0.046791
    30  C   -0.089026
    31  H    0.048573
    32  H    0.048406
    33  C   -0.166064
    34  H    0.055137
    35  H    0.052804
    36  H    0.052826
 Sum of Mulliken charges =   0.00000

 Dipole moment (field-independent basis, Debye):
    X=             -0.1813    Y=             -0.1355    Z=             -0.0348  Tot=              0.2289
 Quadrupole moment (field-independent basis, Debye-Ang):
   XX=            -76.3487   YY=            -76.0921   ZZ=            -74.7275
   XY=              0.2339   XZ=             -0.6127   YZ=             -0.0672

 Normal termination of Gaussian 09 at Mon Dec  4 11:08:01 2017.
