 Gaussian 09, Revision D.01,
 Gaussian 09:  ES64L-G09RevD.01 24-Apr-2013

 -------------------------------------------------------------
 # Opt=(Z-mat,maxcycle=200) m06/def2svp Integral=SuperFineGrid
 -------------------------------------------------------------

 ------
 C12H24
 ------
 Symbolic Z-matrix:
 Charge =  0 Multiplicity = 1

 SCF Done:  E(RM06) =  -470.970630635     A.U. after   12 cycles
 SCF Done:  E(RM06) =  -470.976729282     A.U. after   11 cycles
 SCF Done:  E(RM06) =  -470.977186559     A.U. after   10 cycles
 SCF Done:  E(RM06) =  -470.977214982     A.U. after    8 cycles
 SCF Done:  E(RM06) =  -470.977218062     A.U. after    7 cycles
 SCF Done:  E(RM06) =  -470.977218495     A.U. after    7 cycles
 Optimization completed.
    -- Stationary point found.

                         Standard orientation:
 ---------------------------------------------------------------------
 Center     Atomic      Atomic             Coordinates (Angstroms)
 Number     Number       Type             X           Y           Z
 ---------------------------------------------------------------------
      1          6           0       -6.794511   -0.461505    0.047196
      2          6           0       -5.548836    0.395589    0.155651
      3          1           0       -7.717290    0.125289    0.176596
      4          1           0       -6.798589   -1.257730    0.811036
      5          1           0       -6.852829   -0.957571   -0.936661
      6          6           0       -4.263991   -0.394700   -0.021091
      7          1           0       -5.526285    0.908250    1.136427
      8          1           0       -5.580955    1.207024   -0.596547
      9          6           0       -3.007303    0.449247    0.085655
     10          1           0       -4.280397   -0.908333   -1.003422
     11          1           0       -4.226309   -1.208257    0.731083
     12          6           0       -1.723542   -0.340567   -0.091843
     13          1           0       -2.990729    0.961982    1.068255
     14          1           0       -3.045492    1.262888   -0.666163
     15          6           0       -0.467056    0.503794    0.015981
     16          1           0       -1.739337   -0.852736   -1.074708
     17          1           0       -1.685291   -1.154582    0.659482
     18          6           0        0.816491   -0.286274   -0.162171
     19          1           0       -0.450692    1.015454    0.999078
     20          1           0       -0.505311    1.318159   -0.734983
     21          6           0        2.072718    0.558401   -0.053630
     22          1           0        0.800544   -0.797579   -1.145437
     23          1           0        0.854838   -1.100644    0.588564
     24          6           0        3.354332   -0.234565   -0.231621
     25          1           0        2.089410    1.069127    0.929817
     26          1           0        2.035549    1.372875   -0.804422
     27          6           0        4.612539    0.617628   -0.111717
     28          1           0        3.343007   -0.739733   -1.217731
     29          1           0        3.398402   -1.050796    0.515158
     30          6           0        5.849050   -0.194221   -0.318017
     31          1           0        4.640736    1.099509    0.883966
     32          1           0        4.551796    1.440727   -0.851040
     33          6           0        6.702714   -0.555986    0.639812
     34          1           0        7.450322   -1.339453    0.483292
     35          1           0        6.686018   -0.077330    1.626953
     36          1           0        5.933256   -0.677591   -1.303829
 ---------------------------------------------------------------------

 The electronic state is 1-A.
 Alpha  occ. eigenvalues --  -10.25003 -10.24744 -10.24472 -10.24230 -10.24104
 Alpha  occ. eigenvalues --  -10.24063 -10.24037 -10.23998 -10.23989 -10.23951
 Alpha  occ. eigenvalues --  -10.23908 -10.23597  -0.82442  -0.81257  -0.79248
 Alpha  occ. eigenvalues --   -0.76526  -0.73238  -0.69461  -0.65199  -0.60864
 Alpha  occ. eigenvalues --   -0.58233  -0.57629  -0.57359  -0.55159  -0.49543
 Alpha  occ. eigenvalues --   -0.48437  -0.46992  -0.45377  -0.44925  -0.44006
 Alpha  occ. eigenvalues --   -0.43238  -0.42409  -0.40955  -0.40459  -0.39035
 Alpha  occ. eigenvalues --   -0.37666  -0.37258  -0.35934  -0.35269  -0.34654
 Alpha  occ. eigenvalues --   -0.34001  -0.33856  -0.33389  -0.32856  -0.32411
 Alpha  occ. eigenvalues --   -0.32270  -0.31740  -0.26751
 Alpha virt. eigenvalues --    0.01945   0.06389   0.06987   0.07644   0.08044
 Alpha virt. eigenvalues --    0.08423   0.08883   0.09448   0.09966   0.10822
 Alpha virt. eigenvalues --    0.10950   0.12520   0.13329   0.13477   0.14762

 Mulliken charges:
               1
     1  C   -0.062148
     2  C   -0.077803
     3  H    0.039272
     4  H    0.035132
     5  H    0.035070
     6  C   -0.062555
     7  H    0.028175
     8  H    0.028146
     9  C   -0.039941
    10  H    0.020361
    11  H    0.020450
    12  C   -0.039930
    13  H    0.019436
    14  H    0.019347
    15  C   -0.040555
    16  H    0.019700
    17  H    0.019922
    18  C   -0.038719
    19  H    0.019883
    20  H    0.019606
    21  C   -0.038258
    22  H    0.020216
    23  H    0.021104
    24  C   -0.066985
    25  H    0.021477
    26  H    0.019874
    27  C    0.013479
    28  H    0.024119
    29  H    0.027527
    30  C   -0.081927
    31  H    0.022543
    32  H    0.032065
    33  C   -0.090207
    34  H    0.045515
    35  H    0.038604
    36  H    0.028005
 Sum of Mulliken charges =   0.00000

 Dipole moment (field-independent basis, Debye):
    X=             -0.5005    Y=              0.0368    Z=             -0.0852  Tot=              0.5090
 Quadrupole moment (field-independent basis, Debye-Ang):
   XX=            -85.3323   YY=            -81.1919   ZZ=            -78.5284
   XY=             -1.1460   XZ=             -0.0419   YZ=              0.2238

 Normal termination of Gaussian 09 at Tue Oct 17 17:08:26 2017.
