 Gaussian 09, Revision D.01,
 Gaussian 09:  ES64L-G09RevD.01 24-Apr-2013

 -------------------------------------------------------------
 # Opt=(Z-mat,maxcycle=200) m06/def2svp Integral=SuperFineGrid
 -------------------------------------------------------------

 ------
 C12H24
 ------
 Symbolic Z-matrix:
 Charge =  0 Multiplicity = 1

 SCF Done:  E(RM06) =  -470.956908832     A.U. after   13 cycles
 SCF Done:  E(RM06) =  -470.967720718     A.U. after   12 cycles
 SCF Done:  E(RM06) =  -470.969030603     A.U. after   11 cycles
 SCF Done:  E(RM06) =  -470.969199634     A.U. after    9 cycles
 SCF Done:  E(RM06) =  -470.969225920     A.U. after    9 cycles
 SCF Done:  E(RM06) =  -470.969229940     A.U. after    7 cycles
 SCF Done:  E(RM06) =  -470.969230340     A.U. after    8 cycles
 Optimization completed.
    -- Stationary point found.

                         Standard orientation:
 ---------------------------------------------------------------------
 Center     Atomic      Atomic             Coordinates (Angstroms)
 Number     Number       Type             X           Y           Z
 ---------------------------------------------------------------------
      1          6           0       -6.842753   -0.350351    0.081765
      2          6           0       -5.577745    0.478332   -0.023446
      3          1           0       -7.752384    0.267058    0.018706
      4          1           0       -6.881200   -0.900052    1.037697
      5          1           0       -6.895813   -1.101302   -0.724919
      6          6           0       -4.310738   -0.354888    0.059371
      7          1           0       -5.559671    1.244832    0.774939
      8          1           0       -5.575497    1.046805   -0.973239
      9          6           0       -3.035047    0.460245   -0.044574
     10          1           0       -4.323086   -1.123142   -0.739827
     11          1           0       -4.307104   -0.925190    1.010060
     12          6           0       -1.769232   -0.372972    0.036264
     13          1           0       -3.022191    1.227368    0.755463
     14          1           0       -3.039539    1.031131   -0.994727
     15          6           0       -0.493710    0.442690   -0.067394
     16          1           0       -1.781612   -1.139763   -0.764052
     17          1           0       -1.764476   -0.944235    0.986122
     18          6           0        0.771928   -0.390957    0.011529
     19          1           0       -0.480426    1.208595    0.733741
     20          1           0       -0.498957    1.014969   -1.016667
     21          6           0        2.047387    0.424802   -0.091004
     22          1           0        0.759164   -1.156282   -0.790155
     23          1           0        0.776996   -0.963793    0.960333
     24          6           0        3.312801   -0.408985   -0.015068
     25          1           0        2.061202    1.188799    0.711944
     26          1           0        2.041784    0.999550   -1.039012
     27          6           0        4.586883    0.415401   -0.119233
     28          1           0        3.302285   -1.169945   -0.820826
     29          1           0        3.322031   -0.984677    0.930519
     30          6           0        5.857305   -0.372840   -0.160114
     31          1           0        4.624796    1.166642    0.693648
     32          1           0        4.558822    0.998900   -1.061004
     33          6           0        7.032844   -0.001894    0.353596
     34          1           0        7.092649    0.648410    1.236118
     35          1           0        7.982789   -0.328608   -0.080937
     36          1           0        5.879895   -1.117558   -0.974065
 ---------------------------------------------------------------------

 The electronic state is 1-A.
 Alpha  occ. eigenvalues --  -10.24991 -10.24947 -10.24288 -10.24184 -10.24072
 Alpha  occ. eigenvalues --  -10.24061 -10.24056 -10.24015 -10.23973 -10.23939
 Alpha  occ. eigenvalues --  -10.23898 -10.23591  -0.82379  -0.81191  -0.79213
 Alpha  occ. eigenvalues --   -0.76565  -0.73320  -0.69505  -0.65211  -0.60881
 Alpha  occ. eigenvalues --   -0.58217  -0.57626  -0.57342  -0.55052  -0.49495
 Alpha  occ. eigenvalues --   -0.48320  -0.46873  -0.45359  -0.45015  -0.43969
 Alpha  occ. eigenvalues --   -0.43329  -0.42516  -0.40782  -0.40558  -0.39196
 Alpha  occ. eigenvalues --   -0.37875  -0.36914  -0.35995  -0.35371  -0.34578
 Alpha  occ. eigenvalues --   -0.34107  -0.33764  -0.33373  -0.32875  -0.32388
 Alpha  occ. eigenvalues --   -0.32262  -0.31778  -0.26092
 Alpha virt. eigenvalues --    0.00892   0.06414   0.07034   0.07707   0.08101
 Alpha virt. eigenvalues --    0.08407   0.08927   0.09423   0.09906   0.10749
 Alpha virt. eigenvalues --    0.11038   0.12433   0.13283   0.13482   0.14752

 Mulliken charges:
               1
     1  C   -0.062130
     2  C   -0.077760
     3  H    0.039238
     4  H    0.035136
     5  H    0.035051
     6  C   -0.062587
     7  H    0.028168
     8  H    0.028103
     9  C   -0.039891
    10  H    0.020319
    11  H    0.020456
    12  C   -0.039876
    13  H    0.019404
    14  H    0.019279
    15  C   -0.040901
    16  H    0.019623
    17  H    0.019874
    18  C   -0.038208
    19  H    0.019758
    20  H    0.019512
    21  C   -0.043481
    22  H    0.019833
    23  H    0.020771
    24  C   -0.067382
    25  H    0.021160
    26  H    0.018734
    27  C   -0.000321
    28  H    0.023461
    29  H    0.030697
    30  C   -0.076518
    31  H    0.024220
    32  H    0.048839
    33  C   -0.099471
    34  H    0.042021
    35  H    0.047683
    36  H    0.027187
 Sum of Mulliken charges =   0.00000

 Dipole moment (field-independent basis, Debye):
    X=             -0.3958    Y=              0.2258    Z=             -0.2510  Tot=              0.5202
 Quadrupole moment (field-independent basis, Debye-Ang):
   XX=            -83.5413   YY=            -81.4156   ZZ=            -79.1898
   XY=              0.8803   XZ=             -1.3177   YZ=              1.2141

 Normal termination of Gaussian 09 at Tue Oct 17 17:07:36 2017.
