 Gaussian 09, Revision D.01,
 Gaussian 09:  ES64L-G09RevD.01 24-Apr-2013

 -------------------------------------------------------------
 # Opt=(Z-mat,maxcycle=200) m06/def2svp Integral=SuperFineGrid
 -------------------------------------------------------------

 ------
 C12H24
 ------
 Symbolic Z-matrix:
 Charge =  0 Multiplicity = 1

 SCF Done:  E(RM06) =  -470.935764956     A.U. after   13 cycles
 SCF Done:  E(RM06) =  -470.953977898     A.U. after   12 cycles
 SCF Done:  E(RM06) =  -470.958112824     A.U. after   11 cycles
 SCF Done:  E(RM06) =  -470.958312104     A.U. after    9 cycles
 SCF Done:  E(RM06) =  -470.958335839     A.U. after    9 cycles
 SCF Done:  E(RM06) =  -470.958340226     A.U. after    8 cycles
 SCF Done:  E(RM06) =  -470.958340756     A.U. after    8 cycles
 Optimization completed.
    -- Stationary point found.

                         Standard orientation:
 ---------------------------------------------------------------------
 Center     Atomic      Atomic             Coordinates (Angstroms)
 Number     Number       Type             X           Y           Z
 ---------------------------------------------------------------------
      1          6           0       -6.766144   -0.510353   -0.006217
      2          6           0       -5.531773    0.349842    0.179227
      3          1           0       -7.696498    0.051031    0.172300
      4          1           0       -6.760550   -1.370237    0.685187
      5          1           0       -6.817313   -0.919297   -1.029740
      6          6           0       -4.236761   -0.406329   -0.060767
      7          1           0       -5.517664    0.776594    1.200468
      8          1           0       -5.572686    1.222432   -0.500611
      9          6           0       -2.991209    0.441198    0.120757
     10          1           0       -4.245098   -0.834732   -1.083246
     11          1           0       -4.189901   -1.280362    0.619633
     12          6           0       -1.697357   -0.315457   -0.117025
     13          1           0       -2.983812    0.870380    1.142730
     14          1           0       -3.037413    1.314144   -0.560805
     15          6           0       -0.452008    0.532758    0.063815
     16          1           0       -1.704628   -0.745322   -1.138669
     17          1           0       -1.650442   -1.187876    0.565081
     18          6           0        0.841558   -0.225097   -0.171914
     19          1           0       -0.445192    0.963717    1.084965
     20          1           0       -0.497757    1.404384   -0.619370
     21          6           0        2.086547    0.624210    0.007941
     22          1           0        0.834553   -0.656805   -1.192710
     23          1           0        0.888148   -1.095879    0.512034
     24          6           0        3.376731   -0.140259   -0.226189
     25          1           0        2.093601    1.056296    1.028328
     26          1           0        2.041751    1.493933   -0.677360
     27          6           0        4.620960    0.718245   -0.032441
     28          1           0        3.375200   -0.566060   -1.248831
     29          1           0        3.430302   -1.010931    0.455065
     30          6           0        5.847116   -0.093780   -0.321114
     31          1           0        4.637363    1.106172    1.004669
     32          1           0        4.544727    1.605210   -0.691258
     33          6           0        6.535740   -0.861647    0.533751
     34          1           0        6.872360   -1.867297    0.260613
     35          1           0        6.794064   -0.519271    1.545609
     36          1           0        5.806475   -0.490203   -1.353032
 ---------------------------------------------------------------------

 The electronic state is 1-A.
 Alpha  occ. eigenvalues --  -10.25094 -10.25031 -10.24579 -10.24357 -10.24304
 Alpha  occ. eigenvalues --  -10.24169 -10.24078 -10.24077 -10.24020 -10.23974
 Alpha  occ. eigenvalues --  -10.23927 -10.23610  -0.82536  -0.81323  -0.79270
 Alpha  occ. eigenvalues --   -0.76503  -0.73229  -0.69518  -0.65280  -0.60923
 Alpha  occ. eigenvalues --   -0.58295  -0.57666  -0.57393  -0.55018  -0.49590
 Alpha  occ. eigenvalues --   -0.48427  -0.46841  -0.45292  -0.44949  -0.44102
 Alpha  occ. eigenvalues --   -0.43171  -0.42578  -0.41043  -0.40418  -0.39294
 Alpha  occ. eigenvalues --   -0.37672  -0.37360  -0.35903  -0.35330  -0.34765
 Alpha  occ. eigenvalues --   -0.34043  -0.33725  -0.33425  -0.32902  -0.32459
 Alpha  occ. eigenvalues --   -0.32294  -0.31770  -0.25664
 Alpha virt. eigenvalues --   -0.00063   0.06356   0.06949   0.07595   0.08000
 Alpha virt. eigenvalues --    0.08412   0.08897   0.09416   0.09940   0.10885
 Alpha virt. eigenvalues --    0.11009   0.12484   0.13202   0.13663   0.14752

 Mulliken charges:
               1
     1  C   -0.062139
     2  C   -0.077782
     3  H    0.039309
     4  H    0.035106
     5  H    0.035121
     6  C   -0.062604
     7  H    0.028202
     8  H    0.028181
     9  C   -0.039901
    10  H    0.020412
    11  H    0.020426
    12  C   -0.040059
    13  H    0.019480
    14  H    0.019435
    15  C   -0.039917
    16  H    0.019797
    17  H    0.019931
    18  C   -0.040016
    19  H    0.020002
    20  H    0.019766
    21  C   -0.035910
    22  H    0.020559
    23  H    0.021496
    24  C   -0.064919
    25  H    0.022072
    26  H    0.021054
    27  C    0.004896
    28  H    0.021898
    29  H    0.025879
    30  C   -0.062123
    31  H    0.026704
    32  H    0.028805
    33  C   -0.115973
    34  H    0.054364
    35  H    0.047508
    36  H    0.020940
 Sum of Mulliken charges =   0.00000

 Dipole moment (field-independent basis, Debye):
    X=             -0.6812    Y=             -0.0618    Z=              0.0151  Tot=              0.6841
 Quadrupole moment (field-independent basis, Debye-Ang):
   XX=            -87.6301   YY=            -80.4831   ZZ=            -78.7884
   XY=             -1.5416   XZ=              0.6490   YZ=             -0.1860

 Normal termination of Gaussian 09 at Tue Oct 17 17:10:02 2017.
