 Gaussian 09, Revision D.01,
 Gaussian 09:  ES64L-G09RevD.01 24-Apr-2013

 ----------------------------------------------------------------------
 # opt Integral(superfinegrid) pbepbe/def2svp geom=connectivity Empiric
 alDispersion=GD3
 ----------------------------------------------------------------------

 -----------------------
 MOF-5 Node Optimization
 -----------------------
 Symbolic Z-matrix:
 Charge =  0 Multiplicity = 1

 SCF Done:  E(RPBE-PBE) =  -9707.71202414     A.U. after   14 cycles
 SCF Done:  E(RPBE-PBE) =  -9707.73774236     A.U. after   12 cycles
 SCF Done:  E(RPBE-PBE) =  -9707.73831760     A.U. after   10 cycles
 SCF Done:  E(RPBE-PBE) =  -9707.73834976     A.U. after    9 cycles
 SCF Done:  E(RPBE-PBE) =  -9707.73836522     A.U. after    9 cycles
 SCF Done:  E(RPBE-PBE) =  -9707.73837560     A.U. after    9 cycles
 SCF Done:  E(RPBE-PBE) =  -9707.73838928     A.U. after    9 cycles
 SCF Done:  E(RPBE-PBE) =  -9707.73840386     A.U. after    9 cycles
 SCF Done:  E(RPBE-PBE) =  -9707.73841128     A.U. after    8 cycles
 SCF Done:  E(RPBE-PBE) =  -9707.73841905     A.U. after    8 cycles
 SCF Done:  E(RPBE-PBE) =  -9707.73850735     A.U. after    6 cycles
 SCF Done:  E(RPBE-PBE) =  -9707.73850901     A.U. after    6 cycles
 SCF Done:  E(RPBE-PBE) =  -9707.73850908     A.U. after    6 cycles
 SCF Done:  E(RPBE-PBE) =  -9707.73850732     A.U. after    7 cycles
 SCF Done:  E(RPBE-PBE) =  -9707.73850650     A.U. after    7 cycles
 SCF Done:  E(RPBE-PBE) =  -9707.73850741     A.U. after    6 cycles
 SCF Done:  E(RPBE-PBE) =  -9707.73851224     A.U. after    6 cycles
 SCF Done:  E(RPBE-PBE) =  -9707.73850792     A.U. after    6 cycles
 SCF Done:  E(RPBE-PBE) =  -9707.73850796     A.U. after    5 cycles
 SCF Done:  E(RPBE-PBE) =  -9707.73850949     A.U. after    6 cycles
 Optimization completed.
    -- Stationary point found.

                         Standard orientation:
 ---------------------------------------------------------------------
 Center     Atomic      Atomic             Coordinates (Angstroms)
 Number     Number       Type             X           Y           Z
 ---------------------------------------------------------------------
      1          8           0        0.000067   -0.000078   -0.000015
      2         30           0        0.145689    0.552915    1.889736
      3         30           0       -1.877147   -0.454255   -0.409924
      4         30           0        0.588651    1.480379   -1.166194
      5         30           0        1.142857   -1.579269   -0.313683
      6          8           0       -2.045396   -2.323744   -1.001952
      7          8           0       -0.856004    2.055181   -2.372942
      8          8           0        2.119661    0.944489   -2.280869
      9          8           0        2.510744   -1.209388   -1.679621
     10          8           0        2.074802   -2.123155    1.332313
     11          8           0        0.080943   -3.115973   -0.933887
     12          8           0       -3.028094   -0.222797    1.169778
     13          8           0       -2.591700    0.691889   -1.841543
     14          8           0        1.140275    3.045526   -0.107950
     15          8           0       -1.603842    0.486656    2.788966
     16          8           0        1.372361   -0.622169    2.883834
     17          8           0        0.826432    2.393181    2.043695
     18          6           0       -2.756169    0.156992    2.355594
     19          6           0        2.051119   -1.633591    2.508801
     20          6           0       -1.168932   -3.236784   -1.151976
     21          6           0        2.755172   -0.157658   -2.356724
     22          6           0        1.170472    3.236155    1.151850
     23          6           0       -2.051612    1.634773   -2.507589
     24          6           0       -3.668548    0.633568    4.658677
     25          6           0       -4.733861    0.693599    5.566845
     26          6           0       -6.030978    0.343314    5.153824
     27          6           0       -6.261571   -0.067637    3.829533
     28          6           0       -5.198327   -0.128682    2.919025
     29          6           0       -3.895665    0.221846    3.329358
     30          1           0       -2.645388    0.902525    4.958141
     31          1           0       -4.553787    1.015372    6.604063
     32          1           0       -7.277580   -0.341859    3.506556
     33          1           0       -5.353780   -0.446987    1.878166
     34          1           0       -6.867361    0.390886    5.868460
     35          6           0        2.504123    6.804396    1.143432
     36          6           0        2.051965    5.555561    0.697103
     37          6           0        1.654828    4.573865    1.628089
     38          6           0        1.714872    4.854711    3.008560
     39          6           0        2.167474    6.104492    3.451778
     40          6           0        2.562465    7.080421    2.520462
     41          1           0        2.813571    7.569016    0.414471
     42          1           0        1.997424    5.316250   -0.374638
     43          1           0        1.400622    4.075433    3.717677
     44          1           0        2.213363    6.321135    4.530085
     45          1           0        2.917977    8.062224    2.870000
     46          6           0        2.898995   -2.308970    3.546026
     47          6           0        2.922142   -1.821215    4.868804
     48          6           0        3.714544   -2.453038    5.836350
     49          6           0        4.487797   -3.574464    5.489529
     50          6           0        4.467493   -4.063812    4.171982
     51          6           0        3.676127   -3.434146    3.202186
     52          1           0        2.308886   -0.942741    5.115938
     53          1           0        3.730796   -2.070181    6.868310
     54          1           0        5.110117   -4.070154    6.250786
     55          1           0        5.073239   -4.942079    3.900864
     56          1           0        3.643781   -3.798348    2.165276
     57          6           0       -3.472230   -6.030957   -2.334541
     58          6           0       -3.022436   -4.780769   -1.889610
     59          6           0       -1.652210   -4.574827   -1.628372
     60          6           0       -0.738098   -5.631742   -1.816820
     61          6           0       -1.190965   -6.880779   -2.261860
     62          6           0       -2.557741   -7.081996   -2.521170
     63          1           0       -4.542513   -6.189035   -2.537744
     64          1           0       -3.718433   -3.943546   -1.736252
     65          1           0        0.325871   -5.450145   -1.607378
     66          1           0       -0.475182   -7.704207   -2.408168
     67          1           0       -2.912430   -8.064034   -2.870884
     68          6           0        5.705018   -1.469834   -4.378524
     69          6           0        4.641654   -1.410525   -3.468037
     70          6           0        3.894037   -0.222870   -3.331199
     71          6           0        4.221326    0.903266   -4.114065
     72          6           0        5.285244    0.840839   -5.023693
     73          6           0        6.028081   -0.344996   -5.157096
     74          1           0        6.287069   -2.398280   -4.483361
     75          1           0        4.369983   -2.277037   -2.848178
     76          1           0        3.625810    1.819409   -3.991933
     77          1           0        5.538633    1.721477   -5.633657
     78          1           0        6.863974   -0.392827   -5.872287
     79          6           0       -3.161765    3.993131   -5.285496
     80          6           0       -4.489786    3.578176   -5.485440
     81          6           0       -5.023758    2.530299   -4.715615
     82          6           0       -4.232650    1.897743   -3.747492
     83          6           0       -2.900012    2.311002   -3.543834
     84          6           0       -2.368137    3.362529   -4.318159
     85          1           0       -2.744052    4.813821   -5.888629
     86          1           0       -5.112495    4.074532   -6.245945
     87          1           0       -6.063843    2.205691   -4.872586
     88          1           0       -4.627892    1.076013   -3.133151
     89          1           0       -1.326870    3.669331   -4.143491
 ---------------------------------------------------------------------

 The electronic state is 1-A.
 Alpha  occ. eigenvalues -- -345.68600-345.68599-345.68599-345.68598 -41.64610
 Alpha  occ. eigenvalues --  -41.64610 -41.64610 -41.64608 -36.72804 -36.72803
 Alpha  occ. eigenvalues --  -36.72803 -36.72801 -36.72801 -36.72800 -36.72800
 Alpha  occ. eigenvalues --  -36.72800 -36.72786 -36.72786 -36.72785 -36.72780
 Alpha  occ. eigenvalues --  -18.76342 -18.76341 -18.76341 -18.76341 -18.76341
 Alpha  occ. eigenvalues --  -18.76340 -18.76331 -18.76328 -18.76327 -18.76327
 Alpha  occ. eigenvalues --  -18.76326 -18.76326 -18.75707 -10.02179 -10.02178
 Alpha  occ. eigenvalues --  -10.02177 -10.02177 -10.02176 -10.02176  -9.91117
 Alpha  occ. eigenvalues --   -9.91117  -9.91117  -9.91117  -9.91117  -9.91117
 Alpha  occ. eigenvalues --   -9.91104  -9.91104  -9.91104  -9.91104  -9.91104
 Alpha  occ. eigenvalues --   -9.91104  -9.90769  -9.90769  -9.90769  -9.90769
 Alpha  occ. eigenvalues --   -9.90769  -9.90769  -9.90767  -9.90767  -9.90767
 Alpha  occ. eigenvalues --   -9.90767  -9.90767  -9.90767  -9.90739  -9.90739
 Alpha  occ. eigenvalues --   -9.90739  -9.90739  -9.90739  -9.90739  -9.90738
 Alpha  occ. eigenvalues --   -9.90738  -9.90738  -9.90737  -9.90737  -9.90737
 Alpha  occ. eigenvalues --   -4.59383  -4.59383  -4.59383  -4.59382  -3.02851
 Alpha  occ. eigenvalues --   -3.02851  -3.02851  -3.02851  -3.02851  -3.02850
 Alpha  occ. eigenvalues --   -3.02850  -3.02850  -3.02834  -3.02828  -3.02828
 Alpha  occ. eigenvalues --   -3.02828  -0.97769  -0.97638  -0.97638  -0.97638
 Alpha  occ. eigenvalues --   -0.97577  -0.97576  -0.89438  -0.89438  -0.89437
 Alpha  occ. eigenvalues --   -0.89253  -0.89253  -0.89253  -0.82774  -0.77374
 Alpha  occ. eigenvalues --   -0.77370  -0.77370  -0.77370  -0.77367  -0.77367
 Alpha  occ. eigenvalues --   -0.68229  -0.68194  -0.68193  -0.68193  -0.68172
 Alpha  occ. eigenvalues --   -0.68172  -0.66975  -0.66975  -0.66975  -0.66973
 Alpha  occ. eigenvalues --   -0.66973  -0.66973  -0.57467  -0.57236  -0.57236
 Alpha  occ. eigenvalues --   -0.57236  -0.57106  -0.57106  -0.54203  -0.54203
 Alpha  occ. eigenvalues --   -0.54203  -0.54169  -0.54169  -0.54168  -0.50831
 Alpha  occ. eigenvalues --   -0.50508  -0.50507  -0.50507  -0.50304  -0.50304
 Alpha  occ. eigenvalues --   -0.46983  -0.46983  -0.46983  -0.46966  -0.46722
 Alpha  occ. eigenvalues --   -0.46722  -0.46673  -0.46673  -0.46673  -0.46249
 Alpha  occ. eigenvalues --   -0.46249  -0.46249  -0.42231  -0.42230  -0.42230
 Alpha  occ. eigenvalues --   -0.42002  -0.42002  -0.41896  -0.41482  -0.41482
 Alpha  occ. eigenvalues --   -0.41482  -0.41166  -0.41166  -0.41166  -0.40329
 Alpha  occ. eigenvalues --   -0.40329  -0.40329  -0.40147  -0.40147  -0.40146
 Alpha  occ. eigenvalues --   -0.40035  -0.40035  -0.40035  -0.39810  -0.39810
 Alpha  occ. eigenvalues --   -0.39600  -0.39307  -0.39307  -0.39307  -0.38597
 Alpha  occ. eigenvalues --   -0.38597  -0.38326  -0.38326  -0.38326  -0.37884
 Alpha  occ. eigenvalues --   -0.37883  -0.37883  -0.37767  -0.37478  -0.37478
 Alpha  occ. eigenvalues --   -0.37478  -0.37453  -0.37453  -0.37453  -0.37063
 Alpha  occ. eigenvalues --   -0.37063  -0.36442  -0.36442  -0.36442  -0.35071
 Alpha  occ. eigenvalues --   -0.35070  -0.35070  -0.33033  -0.33033  -0.33032
 Alpha  occ. eigenvalues --   -0.32821  -0.32821  -0.32821  -0.32377  -0.32377
 Alpha  occ. eigenvalues --   -0.32376  -0.31957  -0.31951  -0.31950  -0.31038
 Alpha  occ. eigenvalues --   -0.31037  -0.31037  -0.30118  -0.30118  -0.30118
 Alpha  occ. eigenvalues --   -0.30093  -0.30093  -0.30093  -0.28724  -0.27870
 Alpha  occ. eigenvalues --   -0.27870  -0.26664  -0.26664  -0.26664  -0.26148
 Alpha  occ. eigenvalues --   -0.25062  -0.25062  -0.25062  -0.24986  -0.24986
 Alpha  occ. eigenvalues --   -0.24259  -0.24258  -0.24258  -0.23507  -0.23507
 Alpha  occ. eigenvalues --   -0.23507  -0.23458  -0.23458  -0.23458  -0.23457
 Alpha  occ. eigenvalues --   -0.23457  -0.23457  -0.23325  -0.23325  -0.23324
 Alpha  occ. eigenvalues --   -0.23323  -0.23323  -0.23322
 Alpha virt. eigenvalues --   -0.07961  -0.07961  -0.07961  -0.07683  -0.07683
 Alpha virt. eigenvalues --   -0.07683  -0.04314  -0.04314  -0.04312  -0.04312
 Alpha virt. eigenvalues --   -0.04312  -0.04309  -0.04140   0.01099   0.01099

 Mulliken charges:
               1
     1  O   -0.734529
     2  Zn   0.793268
     3  Zn   0.793264
     4  Zn   0.793255
     5  Zn   0.793273
     6  O   -0.353387
     7  O   -0.353388
     8  O   -0.353393
     9  O   -0.353388
    10  O   -0.353398
    11  O   -0.353390
    12  O   -0.353392
    13  O   -0.353388
    14  O   -0.353380
    15  O   -0.353380
    16  O   -0.353382
    17  O   -0.353397
    18  C    0.271860
    19  C    0.271867
    20  C    0.271861
    21  C    0.271867
    22  C    0.271860
    23  C    0.271864
    24  C    0.014911
    25  C    0.007683
    26  C    0.016264
    27  C    0.007693
    28  C    0.014910
    29  C   -0.052978
    30  H    0.007804
    31  H    0.000722
    32  H    0.000719
    33  H    0.007813
    34  H    0.002948
    35  C    0.007689
    36  C    0.014910
    37  C   -0.052979
    38  C    0.014911
    39  C    0.007689
    40  C    0.016263
    41  H    0.000720
    42  H    0.007809
    43  H    0.007808
    44  H    0.000720
    45  H    0.002948
    46  C   -0.052980
    47  C    0.014912
    48  C    0.007688
    49  C    0.016263
    50  C    0.007690
    51  C    0.014913
    52  H    0.007808
    53  H    0.000721
    54  H    0.002949
    55  H    0.000721
    56  H    0.007810
    57  C    0.007689
    58  C    0.014910
    59  C   -0.052980
    60  C    0.014913
    61  C    0.007689
    62  C    0.016263
    63  H    0.000720
    64  H    0.007808
    65  H    0.007809
    66  H    0.000721
    67  H    0.002949
    68  C    0.007688
    69  C    0.014911
    70  C   -0.052980
    71  C    0.014911
    72  C    0.007690
    73  C    0.016263
    74  H    0.000720
    75  H    0.007807
    76  H    0.007811
    77  H    0.000720
    78  H    0.002948
    79  C    0.007688
    80  C    0.016262
    81  C    0.007691
    82  C    0.014913
    83  C   -0.052980
    84  C    0.014913
    85  H    0.000722
    86  H    0.002950
    87  H    0.000721
    88  H    0.007809
    89  H    0.007811
 Sum of Mulliken charges =   0.00000

 Dipole moment (field-independent basis, Debye):
    X=             -0.0004    Y=             -0.0001    Z=              0.0000  Tot=              0.0004
 Quadrupole moment (field-independent basis, Debye-Ang):
   XX=           -330.5438   YY=           -330.5466   ZZ=           -330.5526
   XY=              0.0001   XZ=              0.0030   YZ=              0.0003

 Normal termination of Gaussian 09 at Sat Feb  3 08:19:01 2018.
