 Gaussian 09, Revision D.01,
 Gaussian 09:  ES64L-G09RevD.01 24-Apr-2013

 -------------------------------------------------------------
 # Opt=(Z-mat,maxcycle=200) m06/def2svp Integral=SuperFineGrid
 -------------------------------------------------------------

 ------
 C12H24
 ------
 Symbolic Z-matrix:
 Charge =  0 Multiplicity = 1

 SCF Done:  E(RM06) =  -470.957504653     A.U. after   13 cycles
 SCF Done:  E(RM06) =  -470.969043396     A.U. after   11 cycles
 SCF Done:  E(RM06) =  -470.970103505     A.U. after   11 cycles
 SCF Done:  E(RM06) =  -470.970175942     A.U. after    9 cycles
 SCF Done:  E(RM06) =  -470.970185059     A.U. after    9 cycles
 SCF Done:  E(RM06) =  -470.970186302     A.U. after    8 cycles
 SCF Done:  E(RM06) =  -470.970186476     A.U. after    7 cycles
 Optimization completed.
    -- Stationary point found.

                         Standard orientation:
 ---------------------------------------------------------------------
 Center     Atomic      Atomic             Coordinates (Angstroms)
 Number     Number       Type             X           Y           Z
 ---------------------------------------------------------------------
      1          6           0       -6.777899   -0.490416    0.012589
      2          6           0       -5.538416    0.365791    0.181863
      3          1           0       -7.704729    0.078226    0.186444
      4          1           0       -6.774372   -1.340566    0.715945
      5          1           0       -6.834712   -0.913376   -1.004921
      6          6           0       -4.248099   -0.400672   -0.050790
      7          1           0       -5.518980    0.807275    1.196736
      8          1           0       -5.576751    1.228605   -0.510486
      9          6           0       -2.997490    0.442799    0.114378
     10          1           0       -4.261829   -0.844185   -1.066748
     11          1           0       -4.203764   -1.264733    0.642392
     12          6           0       -1.708289   -0.324252   -0.115420
     13          1           0       -2.984886    0.887369    1.129703
     14          1           0       -3.041015    1.305566   -0.580197
     15          6           0       -0.457877    0.519914    0.048925
     16          1           0       -1.720758   -0.769675   -1.130329
     17          1           0       -1.664053   -1.186372    0.579830
     18          6           0        0.831109   -0.248287   -0.178437
     19          1           0       -0.445974    0.966566    1.063274
     20          1           0       -0.500931    1.381145   -0.647501
     21          6           0        2.081214    0.596717   -0.015077
     22          1           0        0.819070   -0.695763   -1.192390
     23          1           0        0.874898   -1.108651    0.518771
     24          6           0        3.367556   -0.176550   -0.240304
     25          1           0        2.093351    1.044728    0.998471
     26          1           0        2.039285    1.456149   -0.713534
     27          6           0        4.618811    0.676131   -0.064086
     28          1           0        3.361100   -0.618863   -1.256079
     29          1           0        3.417646   -1.037151    0.454189
     30          6           0        5.847201   -0.134503   -0.329046
     31          1           0        4.643135    1.084289    0.964634
     32          1           0        4.548478    1.549668   -0.741658
     33          6           0        6.599644   -0.738411    0.594423
     34          1           0        7.152932   -1.657952    0.379334
     35          1           0        6.692774   -0.333471    1.610776
     36          1           0        5.885293   -0.548394   -1.350765
 ---------------------------------------------------------------------

 The electronic state is 1-A.
 Alpha  occ. eigenvalues --  -10.25020 -10.24871 -10.24523 -10.24259 -10.24136
 Alpha  occ. eigenvalues --  -10.24129 -10.24069 -10.24053 -10.24000 -10.23959
 Alpha  occ. eigenvalues --  -10.23915 -10.23602  -0.82486  -0.81292  -0.79262
 Alpha  occ. eigenvalues --   -0.76513  -0.73223  -0.69473  -0.65225  -0.60883
 Alpha  occ. eigenvalues --   -0.58256  -0.57643  -0.57372  -0.55104  -0.49563
 Alpha  occ. eigenvalues --   -0.48440  -0.46943  -0.45343  -0.44928  -0.44044
 Alpha  occ. eigenvalues --   -0.43202  -0.42462  -0.41005  -0.40430  -0.39118
 Alpha  occ. eigenvalues --   -0.37657  -0.37343  -0.35902  -0.35294  -0.34723
 Alpha  occ. eigenvalues --   -0.34004  -0.33830  -0.33403  -0.32870  -0.32431
 Alpha  occ. eigenvalues --   -0.32279  -0.31744  -0.26329
 Alpha virt. eigenvalues --    0.01135   0.06375   0.06970   0.07625   0.08020
 Alpha virt. eigenvalues --    0.08427   0.08890   0.09421   0.09965   0.10879
 Alpha virt. eigenvalues --    0.10927   0.12515   0.13290   0.13539   0.14760

 Mulliken charges:
               1
     1  C   -0.062151
     2  C   -0.077772
     3  H    0.039286
     4  H    0.035088
     5  H    0.035124
     6  C   -0.062597
     7  H    0.028186
     8  H    0.028159
     9  C   -0.039880
    10  H    0.020397
    11  H    0.020417
    12  C   -0.040034
    13  H    0.019440
    14  H    0.019394
    15  C   -0.040132
    16  H    0.019748
    17  H    0.019915
    18  C   -0.039441
    19  H    0.019914
    20  H    0.019667
    21  C   -0.036811
    22  H    0.020378
    23  H    0.021323
    24  C   -0.063670
    25  H    0.021712
    26  H    0.020520
    27  C    0.007707
    28  H    0.022839
    29  H    0.026021
    30  C   -0.073353
    31  H    0.024629
    32  H    0.029226
    33  C   -0.101062
    34  H    0.049424
    35  H    0.042657
    36  H    0.025732
 Sum of Mulliken charges =   0.00000

 Dipole moment (field-independent basis, Debye):
    X=             -0.5822    Y=             -0.0175    Z=             -0.0371  Tot=              0.5836
 Quadrupole moment (field-independent basis, Debye-Ang):
   XX=            -86.4937   YY=            -80.8158   ZZ=            -78.5899
   XY=             -1.4418   XZ=              0.2302   YZ=             -0.0660

 Normal termination of Gaussian 09 at Tue Oct 17 17:11:49 2017.
