 Gaussian 09, Revision D.01,
 Gaussian 09:  ES64L-G09RevD.01 24-Apr-2013

 -------------------------------------------------------------
 # Opt=(Z-mat,maxcycle=200) m06/def2svp Integral=SuperFineGrid
 -------------------------------------------------------------

 ------
 C12H24
 ------
 Symbolic Z-matrix:
 Charge =  0 Multiplicity = 1

 SCF Done:  E(RM06) =  -470.824726754     A.U. after   18 cycles
 SCF Done:  E(RM06) =  -470.863438936     A.U. after   13 cycles
 SCF Done:  E(RM06) =  -470.897520386     A.U. after   14 cycles
 SCF Done:  E(RM06) =  -470.901450311     A.U. after   12 cycles
 SCF Done:  E(RM06) =  -470.901037963     A.U. after   14 cycles
 SCF Done:  E(RM06) =  -470.903762222     A.U. after   11 cycles
 SCF Done:  E(RM06) =  -470.905170740     A.U. after   11 cycles
 SCF Done:  E(RM06) =  -470.905903410     A.U. after   11 cycles
 SCF Done:  E(RM06) =  -470.906213461     A.U. after   10 cycles
 SCF Done:  E(RM06) =  -470.905594077     A.U. after   12 cycles
 SCF Done:  E(RM06) =  -470.906775068     A.U. after   10 cycles
 SCF Done:  E(RM06) =  -470.906782513     A.U. after    8 cycles
 SCF Done:  E(RM06) =  -470.906790872     A.U. after    9 cycles
 SCF Done:  E(RM06) =  -470.906797508     A.U. after    9 cycles
 SCF Done:  E(RM06) =  -470.906801670     A.U. after    8 cycles
 SCF Done:  E(RM06) =  -470.906805208     A.U. after    8 cycles
 SCF Done:  E(RM06) =  -470.906808385     A.U. after    8 cycles
 SCF Done:  E(RM06) =  -470.906810950     A.U. after    8 cycles
 SCF Done:  E(RM06) =  -470.906812440     A.U. after    8 cycles
 SCF Done:  E(RM06) =  -470.906812886     A.U. after    7 cycles
 Optimization completed.
    -- Stationary point found.

                         Standard orientation:
 ---------------------------------------------------------------------
 Center     Atomic      Atomic             Coordinates (Angstroms)
 Number     Number       Type             X           Y           Z
 ---------------------------------------------------------------------
      1          6           0       -6.835037   -0.464014   -0.003817
      2          6           0       -5.590916    0.398387   -0.084520
      3          1           0       -7.759486    0.128964   -0.083450
      4          1           0       -6.876764   -1.015436    0.950986
      5          1           0       -6.852806   -1.215294   -0.811707
      6          6           0       -4.303645   -0.399840    0.026590
      7          1           0       -5.610299    1.166330    0.712426
      8          1           0       -5.584248    0.965227   -1.035262
      9          6           0       -3.048842    0.449767   -0.053981
     10          1           0       -4.278669   -1.170340   -0.770123
     11          1           0       -4.303816   -0.967119    0.979070
     12          6           0       -1.762432   -0.347513    0.059075
     13          1           0       -3.074774    1.220742    0.742001
     14          1           0       -3.048187    1.015745   -1.007049
     15          6           0       -0.508219    0.503163   -0.021738
     16          1           0       -1.735961   -1.118603   -0.736715
     17          1           0       -1.762399   -0.913194    1.012234
     18          6           0        0.778100   -0.294086    0.091870
     19          1           0       -0.534575    1.274331    0.773909
     20          1           0       -0.507729    1.068688   -0.975020
     21          6           0        2.031459    0.557890    0.009856
     22          1           0        0.804232   -1.066159   -0.702801
     23          1           0        0.779055   -0.858110    1.045882
     24          6           0        3.314587   -0.243037    0.131797
     25          1           0        2.000776    1.333095    0.800577
     26          1           0        2.035084    1.116680   -0.947529
     27          6           0        4.559904    0.619256    0.007760
     28          1           0        3.332056   -1.035299   -0.642495
     29          1           0        3.330649   -0.776819    1.100732
     30          6           0        5.847046   -0.172772    0.075316
     31          1           0        4.478169    1.452408    0.737418
     32          1           0        4.584017    1.101159   -0.987044
     33          6           0        7.136401   -0.521838   -0.084615
     34          1           0        7.947740   -0.267981    0.620154
     35          1           0        7.456217   -1.098790   -0.958367
     36          1           0        5.471287   -0.852412   -0.739379
 ---------------------------------------------------------------------

 The electronic state is 1-A.
 Alpha  occ. eigenvalues --  -10.26975 -10.25283 -10.24987 -10.24942 -10.24602
 Alpha  occ. eigenvalues --  -10.24374 -10.24224 -10.24132 -10.24128 -10.24058
 Alpha  occ. eigenvalues --  -10.23992 -10.23653  -0.82862  -0.81526  -0.79447
 Alpha  occ. eigenvalues --   -0.76758  -0.73738  -0.70143  -0.65808  -0.61307
 Alpha  occ. eigenvalues --   -0.58582  -0.57834  -0.57509  -0.54645  -0.49801
 Alpha  occ. eigenvalues --   -0.48518  -0.46621  -0.45497  -0.45101  -0.44522
 Alpha  occ. eigenvalues --   -0.43560  -0.42755  -0.41533  -0.40623  -0.39823
 Alpha  occ. eigenvalues --   -0.38096  -0.36945  -0.36393  -0.35675  -0.34555
 Alpha  occ. eigenvalues --   -0.34262  -0.33536  -0.33225  -0.32626  -0.32375
 Alpha  occ. eigenvalues --   -0.32108  -0.30101  -0.25190
 Alpha virt. eigenvalues --   -0.00250   0.06134   0.06570   0.07158   0.07762
 Alpha virt. eigenvalues --    0.08232   0.08584   0.09376   0.09806   0.10625
 Alpha virt. eigenvalues --    0.11769   0.12313   0.12739   0.13786   0.14619

 Mulliken charges:
               1
     1  C   -0.062138
     2  C   -0.077972
     3  H    0.039460
     4  H    0.035219
     5  H    0.035208
     6  C   -0.062504
     7  H    0.028325
     8  H    0.028213
     9  C   -0.040373
    10  H    0.020514
    11  H    0.020642
    12  C   -0.039441
    13  H    0.019693
    14  H    0.019522
    15  C   -0.041662
    16  H    0.019983
    17  H    0.020317
    18  C   -0.038371
    19  H    0.020512
    20  H    0.020053
    21  C   -0.037675
    22  H    0.021377
    23  H    0.022043
    24  C   -0.098560
    25  H    0.024298
    26  H    0.019515
    27  C    0.037502
    28  H    0.028127
    29  H    0.040224
    30  C   -0.019137
    31  H    0.025581
    32  H    0.053963
    33  C   -0.201241
    34  H    0.037008
    35  H    0.054981
    36  H    0.026796
 Sum of Mulliken charges =   0.00000

 Dipole moment (field-independent basis, Debye):
    X=             -1.0115    Y=              0.1764    Z=             -0.5162  Tot=              1.1492
 Quadrupole moment (field-independent basis, Debye-Ang):
   XX=            -89.3809   YY=            -81.5380   ZZ=            -79.2788
   XY=              0.1814   XZ=             -3.1145   YZ=              0.8895

 Normal termination of Gaussian 09 at Tue Oct 17 18:29:36 2017.
