 Gaussian 09, Revision E.01,
 Gaussian 09:  ES64L-G09RevE.01 30-Nov-2015

 -----------------------------
 # hf/sto-3g geom=connectivity
 -----------------------------

 -------------------
 Title Card Required
 -------------------
 Symbolic Z-matrix:
 Charge =  0 Multiplicity = 1

                         Standard orientation:
 ---------------------------------------------------------------------
 Center     Atomic      Atomic             Coordinates (Angstroms)
 Number     Number       Type             X           Y           Z
 ---------------------------------------------------------------------
      1          6           0        0.007784   -2.171202    5.142310
      2          1           0        0.749227   -1.691244    5.803632
      3          1           0        0.545421   -2.934769    4.554665
      4          1           0       -0.715956   -2.697285    5.784182
      5          6           0       -0.660145   -1.153929    4.238312
      6          1           0       -1.421735   -1.650502    3.607118
      7          1           0       -1.220171   -0.417457    4.845914
      8          6           0        0.321173   -0.416320    3.344188
      9          1           0        0.883547   -1.149556    2.731738
     10          1           0        1.085539    0.085307    3.971313
     11          6           0       -0.333270    0.605207    2.432913
     12          1           0       -0.890698    1.342340    3.044527
     13          1           0       -1.097857    0.109809    1.803448
     14          6           0        0.655479    1.337876    1.534334
     15          1           0        1.199287    0.608297    0.904823
     16          1           0        1.422885    1.817136    2.175058
     17          6           0        0.007784    2.366043    0.667694
     18          1           0       -0.532322    3.171880    1.190978
     19          6           0        0.007784    2.366043   -0.667694
     20          1           0       -0.532322    3.171880   -1.190978
     21          6           0        0.655479    1.337876   -1.534334
     22          1           0        1.199287    0.608297   -0.904823
     23          1           0        1.422885    1.817136   -2.175058
     24          6           0       -0.333270    0.605207   -2.432913
     25          1           0       -0.890698    1.342340   -3.044527
     26          1           0       -1.097857    0.109809   -1.803448
     27          6           0        0.321173   -0.416320   -3.344188
     28          1           0        1.085539    0.085307   -3.971313
     29          1           0        0.883547   -1.149556   -2.731738
     30          6           0       -0.660145   -1.153929   -4.238312
     31          1           0       -1.421735   -1.650502   -3.607118
     32          1           0       -1.220171   -0.417457   -4.845914
     33          6           0        0.007784   -2.171202   -5.142310
     34          1           0       -0.715956   -2.697285   -5.784182
     35          1           0        0.749227   -1.691244   -5.803632
     36          1           0        0.545421   -2.934769   -4.554665
 ---------------------------------------------------------------------

 SCF Done:  E(RHF) =  -462.869386965     A.U. after    9 cycles

 The electronic state is 1-A'.
 Alpha  occ. eigenvalues --  -11.04049 -11.04046 -11.04039 -11.04039 -11.03857
 Alpha  occ. eigenvalues --  -11.03857 -11.03739 -11.03739 -11.03377 -11.03377
 Alpha  occ. eigenvalues --  -11.01028 -11.00950  -1.05976  -1.04495  -1.01920
 Alpha  occ. eigenvalues --   -0.98395  -0.94477  -0.89187  -0.85311  -0.79018
 Alpha  occ. eigenvalues --   -0.77555  -0.75163  -0.74941  -0.67107  -0.63188
 Alpha  occ. eigenvalues --   -0.61346  -0.59493  -0.56716  -0.55818  -0.54828
 Alpha  occ. eigenvalues --   -0.54595  -0.52674  -0.52219  -0.51211  -0.48686
 Alpha  occ. eigenvalues --   -0.47850  -0.47229  -0.46881  -0.44781  -0.44310
 Alpha  occ. eigenvalues --   -0.43119  -0.42704  -0.42020  -0.41883  -0.41200
 Alpha  occ. eigenvalues --   -0.41040  -0.39347  -0.28398
 Alpha virt. eigenvalues --    0.32161   0.54814   0.57746   0.58204   0.58983
 Alpha virt. eigenvalues --    0.60811   0.64062   0.65063   0.65949   0.66822
 Alpha virt. eigenvalues --    0.67468   0.67763   0.68464   0.69685   0.69980

 Mulliken charges:
               1
     1  C   -0.166105
     2  H    0.052532
     3  H    0.052453
     4  H    0.054805
     5  C   -0.089182
     6  H    0.048136
     7  H    0.048088
     8  C   -0.090063
     9  H    0.045144
    10  H    0.045508
    11  C   -0.088553
    12  H    0.046576
    13  H    0.047349
    14  C   -0.102057
    15  H    0.054531
    16  H    0.052115
    17  C   -0.059802
    18  H    0.048526
    19  C   -0.059802
    20  H    0.048526
    21  C   -0.102057
    22  H    0.054531
    23  H    0.052115
    24  C   -0.088553
    25  H    0.046576
    26  H    0.047349
    27  C   -0.090063
    28  H    0.045508
    29  H    0.045144
    30  C   -0.089182
    31  H    0.048136
    32  H    0.048088
    33  C   -0.166105
    34  H    0.054805
    35  H    0.052532
    36  H    0.052453
 Sum of Mulliken charges =  -0.00000

 Dipole moment (field-independent basis, Debye):
    X=              0.0182    Y=             -0.1542    Z=              0.0000  Tot=              0.1553
 Quadrupole moment (field-independent basis, Debye-Ang):
   XX=            -76.0284   YY=            -76.4531   ZZ=            -75.1835
   XY=             -0.3826   XZ=             -0.0000   YZ=             -0.0000

 Normal termination of Gaussian 09 at Mon Dec  4 11:09:11 2017.
