 Gaussian 09, Revision D.01,
 Gaussian 09:  ES64L-G09RevD.01 24-Apr-2013

 -------------------------------------------------------------
 # Opt=(Z-mat,maxcycle=200) m06/def2svp Integral=SuperFineGrid
 -------------------------------------------------------------

 ------
 C12H24
 ------
 Symbolic Z-matrix:
 Charge =  0 Multiplicity = 1

 SCF Done:  E(RM06) =  -470.826682057     A.U. after   17 cycles
 SCF Done:  E(RM06) =  -470.865573629     A.U. after   13 cycles
 SCF Done:  E(RM06) =  -470.900145938     A.U. after   14 cycles
 SCF Done:  E(RM06) =  -470.903686776     A.U. after   12 cycles
 SCF Done:  E(RM06) =  -470.903036144     A.U. after   14 cycles
 SCF Done:  E(RM06) =  -470.905381335     A.U. after   10 cycles
 SCF Done:  E(RM06) =  -470.906654371     A.U. after   11 cycles
 SCF Done:  E(RM06) =  -470.907119643     A.U. after   11 cycles
 SCF Done:  E(RM06) =  -470.907306316     A.U. after   10 cycles
 SCF Done:  E(RM06) =  -470.905909894     A.U. after   12 cycles
 SCF Done:  E(RM06) =  -470.907676676     A.U. after    9 cycles
 SCF Done:  E(RM06) =  -470.907695160     A.U. after    9 cycles
 SCF Done:  E(RM06) =  -470.907708918     A.U. after    9 cycles
 SCF Done:  E(RM06) =  -470.907719221     A.U. after    9 cycles
 SCF Done:  E(RM06) =  -470.907726330     A.U. after    8 cycles
 SCF Done:  E(RM06) =  -470.907732237     A.U. after    9 cycles
 SCF Done:  E(RM06) =  -470.907736555     A.U. after    8 cycles
 SCF Done:  E(RM06) =  -470.907739003     A.U. after    8 cycles
 SCF Done:  E(RM06) =  -470.907739963     A.U. after    7 cycles
 SCF Done:  E(RM06) =  -470.907740206     A.U. after    7 cycles
 Optimization completed.
    -- Stationary point found.

                         Standard orientation:
 ---------------------------------------------------------------------
 Center     Atomic      Atomic             Coordinates (Angstroms)
 Number     Number       Type             X           Y           Z
 ---------------------------------------------------------------------
      1          6           0       -6.773804   -0.555580   -0.006020
      2          6           0       -5.551025    0.337632    0.065253
      3          1           0       -7.712525    0.016328    0.059510
      4          1           0       -6.777411   -1.292992    0.814742
      5          1           0       -6.797842   -1.124260   -0.951257
      6          6           0       -4.244568   -0.431729   -0.023227
      7          1           0       -5.563614    0.922296    1.005072
      8          1           0       -5.583736    1.089723   -0.746247
      9          6           0       -3.010648    0.448730    0.048194
     10          1           0       -4.225487   -1.017074   -0.964534
     11          1           0       -4.206301   -1.185958    0.788376
     12          6           0       -1.705186   -0.320143   -0.040712
     13          1           0       -3.029723    1.033269    0.989788
     14          1           0       -3.049257    1.203001   -0.763130
     15          6           0       -0.471744    0.561062    0.032630
     16          1           0       -1.684978   -0.903708   -0.982834
     17          1           0       -1.666577   -1.075097    0.769890
     18          6           0        0.833447   -0.208350   -0.055718
     19          1           0       -0.491733    1.144683    0.974647
     20          1           0       -0.509737    1.315865   -0.778150
     21          6           0        2.066123    0.674566    0.016541
     22          1           0        0.853170   -0.793091   -0.996947
     23          1           0        0.872879   -0.961660    0.756137
     24          6           0        3.366985   -0.103700   -0.064733
     25          1           0        2.042445    1.262174    0.955229
     26          1           0        2.031564    1.423914   -0.799328
     27          6           0        4.591419    0.800831   -0.016338
     28          1           0        3.384941   -0.704645   -0.994705
     29          1           0        3.421543   -0.835654    0.762946
     30          6           0        5.858100   -0.020249   -0.093706
     31          1           0        4.508910    1.451836    0.879095
     32          1           0        4.574480    1.490643   -0.879102
     33          6           0        6.697435   -1.026214    0.220765
     34          1           0        6.668667   -1.970213   -0.333775
     35          1           0        7.451234   -0.988063    1.026454
     36          1           0        5.549872   -0.442446   -1.089454
 ---------------------------------------------------------------------

 The electronic state is 1-A.
 Alpha  occ. eigenvalues --  -10.26793 -10.25372 -10.24961 -10.24948 -10.24596
 Alpha  occ. eigenvalues --  -10.24385 -10.24227 -10.24133 -10.24131 -10.24060
 Alpha  occ. eigenvalues --  -10.23994 -10.23655  -0.82859  -0.81527  -0.79431
 Alpha  occ. eigenvalues --   -0.76671  -0.73594  -0.70071  -0.65792  -0.61298
 Alpha  occ. eigenvalues --   -0.58553  -0.57830  -0.57504  -0.54647  -0.49814
 Alpha  occ. eigenvalues --   -0.48552  -0.46668  -0.45268  -0.45082  -0.44534
 Alpha  occ. eigenvalues --   -0.43349  -0.42820  -0.41529  -0.40495  -0.39889
 Alpha  occ. eigenvalues --   -0.37919  -0.37121  -0.36409  -0.35591  -0.34603
 Alpha  occ. eigenvalues --   -0.34269  -0.33538  -0.33207  -0.32633  -0.32376
 Alpha  occ. eigenvalues --   -0.32124  -0.30524  -0.24878
 Alpha virt. eigenvalues --   -0.00653   0.05664   0.06466   0.07219   0.07764
 Alpha virt. eigenvalues --    0.08272   0.08709   0.09489   0.09791   0.10842
 Alpha virt. eigenvalues --    0.11709   0.12444   0.12785   0.13947   0.14655

 Mulliken charges:
               1
     1  C   -0.062157
     2  C   -0.077931
     3  H    0.039470
     4  H    0.035237
     5  H    0.035171
     6  C   -0.062602
     7  H    0.028319
     8  H    0.028257
     9  C   -0.040211
    10  H    0.020499
    11  H    0.020622
    12  C   -0.039662
    13  H    0.019726
    14  H    0.019559
    15  C   -0.041440
    16  H    0.019989
    17  H    0.020290
    18  C   -0.038629
    19  H    0.020627
    20  H    0.020148
    21  C   -0.039968
    22  H    0.021456
    23  H    0.022240
    24  C   -0.083365
    25  H    0.025288
    26  H    0.020600
    27  C    0.039168
    28  H    0.023806
    29  H    0.037122
    30  C   -0.031082
    31  H    0.028079
    32  H    0.038398
    33  C   -0.183346
    34  H    0.056110
    35  H    0.040093
    36  H    0.020119
 Sum of Mulliken charges =   0.00000

 Dipole moment (field-independent basis, Debye):
    X=             -1.0937    Y=              0.0154    Z=             -0.2814  Tot=              1.1295
 Quadrupole moment (field-independent basis, Debye-Ang):
   XX=            -91.0320   YY=            -80.3691   ZZ=            -79.5051
   XY=             -1.0715   XZ=             -1.0621   YZ=              0.1375

 Normal termination of Gaussian 09 at Tue Oct 17 18:10:42 2017.
