 Gaussian 09, Revision E.01,
 Gaussian 09:  ES64L-G09RevE.01 30-Nov-2015

 --------------------------------------------
 # opt freq aug-cc-pvtz geom=connectivity m06
 --------------------------------------------

 --------------
 1chloro-butane
 --------------
 Symbolic Z-matrix:
 Charge =  0 Multiplicity = 1

 SCF Done:  E(RM06) =  -617.971638035     A.U. after   13 cycles
 SCF Done:  E(RM06) =  -617.976603446     A.U. after   11 cycles
 SCF Done:  E(RM06) =  -617.977108957     A.U. after   10 cycles
 SCF Done:  E(RM06) =  -617.977126414     A.U. after    9 cycles
 SCF Done:  E(RM06) =  -617.977128748     A.U. after    9 cycles
 Optimization completed.
    -- Stationary point found.

 1\1\GINC-CN0604\FOpt\RM06\Aug-CC-pVTZ\C4H9Cl1\GRAHA682\06-Jul-2017\0\\
 # opt freq aug-cc-pvtz geom=connectivity m06\\1chloro-butane\\0,1\C,-5
 .5502236708,1.8641296566,-0.0000005698\H,-5.2256357518,2.4109842842,0.
 8842358906\H,-5.225639527,2.4109825,-0.8842395237\C,-5.0384774279,0.45
 00331142,-0.0000002492\H,-5.427234646,-0.0783439637,0.8759299925\H,-5.
 4272382307,-0.0783456989,-0.8759278522\C,-3.5209798439,0.4095553269,-0
 .0000032785\H,-3.1437272109,0.9504448049,-0.8743832856\H,-3.1437236413
 ,0.9504472061,0.8743736964\C,-2.9901075195,-1.0082937893,-0.0000023775

 Normal termination of Gaussian 09 at Thu Jul  6 22:39:00 2017.

 ---------------------------------------------------------------------
 #N Geom=AllCheck Guess=TCheck SCRF=Check GenChk RM06/Aug-CC-pVTZ Freq
 ---------------------------------------------------------------------

 Structure from the checkpoint file:  "20170630_augccpVTZ_ccsdt_chlorobutane.chk"
 --------------
 1chloro-butane
 --------------
 Charge =  0 Multiplicity = 1

                         Standard orientation:
 ---------------------------------------------------------------------
 Center     Atomic      Atomic             Coordinates (Angstroms)
 Number     Number       Type             X           Y           Z
 ---------------------------------------------------------------------
      1          6           0        0.743458    0.665254    0.000001
      2          1           0        0.759178    1.300990   -0.884236
      3          1           0        0.759181    1.300986    0.884240
      4          6           0       -0.441632   -0.260552    0.000000
      5          1           0       -0.393177   -0.914744   -0.875930
      6          1           0       -0.393175   -0.914747    0.875928
      7          6           0       -1.748539    0.511736    0.000003
      8          1           0       -1.780599    1.170411    0.874383
      9          1           0       -1.780600    1.170415   -0.874374
     10          6           0       -2.951824   -0.407083    0.000002
     11          1           0       -2.948305   -1.054098   -0.879755
     12          1           0       -2.948303   -1.054102    0.879756
     13          1           0       -3.889042    0.149237    0.000004
     14         17           0        2.294474   -0.247675   -0.000003
 ---------------------------------------------------------------------

 SCF Done:  E(RM06) =  -617.977128748     A.U. after    1 cycles

 The electronic state is 1-A.
 Alpha  occ. eigenvalues -- -101.72474 -10.29879 -10.24851 -10.24723 -10.23476
 Alpha  occ. eigenvalues --   -9.57396  -7.28615  -7.27694  -7.27689  -0.87478
 Alpha  occ. eigenvalues --   -0.81305  -0.73403  -0.64168  -0.60521  -0.50675
 Alpha  occ. eigenvalues --   -0.46231  -0.45300  -0.44385  -0.40452  -0.38559
 Alpha  occ. eigenvalues --   -0.37353  -0.35743  -0.34883  -0.30420  -0.30420
 Alpha virt. eigenvalues --   -0.04166  -0.02926  -0.02690  -0.02345  -0.00674
 Alpha virt. eigenvalues --   -0.00297  -0.00128   0.00479   0.00821   0.01798
 Alpha virt. eigenvalues --    0.02822   0.03675   0.04637   0.05127   0.05167

 Mulliken charges:
               1
     1  C   -0.970318
     2  H    0.553563
     3  H    0.553563
     4  C   -1.230882
     5  H    0.824696
     6  H    0.824695
     7  C   -1.116424
     8  H    0.773586
     9  H    0.773586
    10  C   -2.525175
    11  H    0.688739
    12  H    0.688739
    13  H    0.615996
    14  Cl  -0.454363
 Sum of Mulliken charges =  -0.00000

 Dipole moment (field-independent basis, Debye):
    X=             -2.0876    Y=              0.8713    Z=              0.0000  Tot=              2.2622
 Quadrupole moment (field-independent basis, Debye-Ang):
   XX=            -44.0874   YY=            -39.5030   ZZ=            -39.3562
   XY=              0.5969   XZ=              0.0000   YZ=             -0.0000

  Exact polarizability:  83.505  -1.810  62.076  -0.001  -0.000  56.996
 Approx polarizability:  96.344  -6.022  87.823  -0.000   0.000  83.314

                      1                      2                      3
                      A                      A                      A
 Frequencies --     97.0730               112.2224               161.7469
 Red. masses --      1.6749                 2.4210                 3.6031
 Frc consts  --      0.0093                 0.0180                 0.0555
 IR Inten    --      0.9500                 0.2224                 1.4075

                      4                      5                      6
                      A                      A                      A
 Frequencies --    224.2109               338.6532               403.7485
 Red. masses --      1.2136                 5.4229                 2.7609
 Frc consts  --      0.0359                 0.3664                 0.2652
 IR Inten    --      0.0826                 2.7614                 0.9853

                      7                      8                      9
                      A                      A                      A
 Frequencies --    716.4724               752.1895               773.8146
 Red. masses --      1.0706                 6.3781                 1.1493
 Frc consts  --      0.3238                 2.1262                 0.4055
 IR Inten    --      2.0771                51.1275                 0.0000

                     10                     11                     12
                      A                      A                      A
 Frequencies --    905.4920               916.3697              1046.3783
 Red. masses --      1.6630                 1.1937                 3.2961
 Frc consts  --      0.8034                 0.5906                 2.1263
 IR Inten    --      0.8594                 0.4098                 3.8965

                     13                     14                     15
                      A                      A                      A
 Frequencies --   1074.9432              1087.8561              1126.3081
 Red. masses --      2.0840                 1.2022                 2.4697
 Frc consts  --      1.4188                 0.8382                 1.8459
 IR Inten    --      1.6757                 0.2698                 0.7923

                     16                     17                     18
                      A                      A                      A
 Frequencies --   1220.8273              1249.8100              1291.4864
 Red. masses --      1.4876                 1.2298                 1.1940
 Frc consts  --      1.3063                 1.1318                 1.1733
 IR Inten    --      0.2677                14.0042                 0.2735

                     19                     20                     21
                      A                      A                      A
 Frequencies --   1314.0875              1324.9667              1381.4937
 Red. masses --      1.0718                 1.3374                 1.6211
 Frc consts  --      1.0905                 1.3833                 1.8229
 IR Inten    --      0.3776                14.8898                 5.8302

                     22                     23                     24
                      A                      A                      A
 Frequencies --   1398.6721              1455.0612              1458.7663
 Red. masses --      1.2824                 1.1027                 1.0696
 Frc consts  --      1.4781                 1.3756                 1.3411
 IR Inten    --      2.3142                 0.9316                 0.7160

                     25                     26                     27
                      A                      A                      A
 Frequencies --   1469.3749              1475.8716              1485.4645
 Red. masses --      1.0685                 1.0362                 1.0938
 Frc consts  --      1.3592                 1.3298                 1.4221
 IR Inten    --      1.5265                 7.8578                 8.5996

                     28                     29                     30
                      A                      A                      A
 Frequencies --   2997.0306              3010.5687              3014.1504
 Red. masses --      1.0600                 1.0467                 1.0501
 Frc consts  --      5.6095                 5.5897                 5.6211
 IR Inten    --     10.6127                 8.7246                42.1211

                     31                     32                     33
                      A                      A                      A
 Frequencies --   3026.8953              3050.8866              3053.2658
 Red. masses --      1.1000                 1.0581                 1.1035
 Frc consts  --      5.9379                 5.8024                 6.0611
 IR Inten    --      5.0115                22.2713                15.9480

                     34                     35                     36
                      A                      A                      A
 Frequencies --   3081.1417              3097.1939              3107.9343
 Red. masses --      1.1018                 1.1019                 1.1086
 Frc consts  --      6.1629                 6.2276                 6.3090
 IR Inten    --     38.5142                28.6454                13.4847

 - Thermochemistry -
 -------------------
 Temperature   298.150 Kelvin.  Pressure   1.00000 Atm.
 Atom     1 has atomic number  6 and mass  12.00000

 Molecular mass:    92.03928 amu.
 Principal axes and moments of inertia in atomic units:
                           1         2         3
     Eigenvalues --   105.949581352.957671414.45755
           X            0.99992   0.01277   0.00000
           Y           -0.01277   0.99992  -0.00000
           Z           -0.00000   0.00000   1.00000
 This molecule is an asymmetric top.
 Rotational symmetry number  1.
 Rotational temperatures (Kelvin)      0.81750     0.06402     0.06123
 Rotational constants (GHZ):          17.03396     1.33392     1.27592
 Zero-point vibrational energy     321211.8 (Joules/Mol)
                                   76.77147 (Kcal/Mol)
 Warning -- explicit consideration of   6 degrees of freedom as
           vibrations may cause significant error
 Vibrational temperatures:    139.67   161.46   232.72   322.59   487.25
          (Kelvin)            580.90  1030.84  1082.23  1113.35  1302.80
                             1318.45  1505.50  1546.60  1565.18  1620.50
                             1756.50  1798.20  1858.16  1890.68  1906.33
                             1987.66  2012.37  2093.51  2098.84  2114.10
                             2123.45  2137.25  4312.05  4331.53  4336.68
                             4355.02  4389.54  4392.96  4433.07  4456.17
                             4471.62

 Zero-point correction=                           0.122343 (Hartree/Particle)
 Thermal correction to Energy=                    0.129055
 Thermal correction to Enthalpy=                  0.130000
 Thermal correction to Gibbs Free Energy=         0.091419
 Sum of electronic and zero-point Energies=           -617.854786
 Sum of electronic and thermal Energies=              -617.848073
 Sum of electronic and thermal Enthalpies=            -617.847129
 Sum of electronic and thermal Free Energies=         -617.885710

                     E (Thermal)             CV                S
                      KCal/Mol        Cal/Mol-Kelvin    Cal/Mol-Kelvin
 Total                   80.984             22.417             81.200
 Electronic               0.000              0.000              0.000
 Translational            0.889              2.981             39.471
 Rotational               0.889              2.981             26.808
 Vibrational             79.206             16.455             14.921
 Vibration     1          0.603              1.951              3.512
 Vibration     2          0.607              1.939              3.230
 Vibration     3          0.622              1.889              2.529
 Vibration     4          0.649              1.804              1.925
 Vibration     5          0.719              1.598              1.218
 Vibration     6          0.769              1.462              0.949

 Optimization completed.
    -- Stationary point found.

 1\1\GINC-CN0604\Freq\RM06\Aug-CC-pVTZ\C4H9Cl1\GRAHA682\06-Jul-2017\0\\
 #N Geom=AllCheck Guess=TCheck SCRF=Check GenChk RM06/Aug-CC-pVTZ Freq\
 \1chloro-butane\\0,1\C,-5.5502236708,1.8641296566,-0.0000005698\H,-5.2
 256357518,2.4109842842,0.8842358906\H,-5.225639527,2.4109825,-0.884239
 5237\C,-5.0384774279,0.4500331142,-0.0000002492\H,-5.427234646,-0.0783
 439637,0.8759299925\H,-5.4272382307,-0.0783456989,-0.8759278522\C,-3.5
 209798439,0.4095553269,-0.0000032785\H,-3.1437272109,0.9504448049,-0.8
 743832856\H,-3.1437236413,0.9504472061,0.8743736964\C,-2.9901075195,-1

 Normal termination of Gaussian 09 at Thu Jul  6 22:50:25 2017.
