 Gaussian 09, Revision E.01,
 Gaussian 09:  ES64L-G09RevE.01 30-Nov-2015

 -----------------------------
 # hf/sto-3g geom=connectivity
 -----------------------------

 -------------------
 Title Card Required
 -------------------
 Symbolic Z-matrix:
 Charge =  0 Multiplicity = 1

                         Standard orientation:
 ---------------------------------------------------------------------
 Center     Atomic      Atomic             Coordinates (Angstroms)
 Number     Number       Type             X           Y           Z
 ---------------------------------------------------------------------
      1          6           0        5.413985   -2.033271   -0.107684
      2          1           0        5.776492   -1.790608   -1.121167
      3          1           0        4.787008   -2.936829   -0.196554
      4          1           0        6.291444   -2.298625    0.502409
      5          6           0        4.630547   -0.878801    0.485282
      6          1           0        4.304351   -1.130475    1.512544
      7          1           0        5.285984    0.006254    0.596091
      8          6           0        3.415405   -0.496378   -0.341575
      9          1           0        2.754317   -1.379173   -0.453950
     10          1           0        3.736363   -0.240830   -1.371552
     11          6           0        2.620698    0.657852    0.240170
     12          1           0        3.279133    1.542821    0.347199
     13          1           0        2.296875    0.408252    1.269285
     14          6           0        1.399746    1.033203   -0.590649
     15          1           0        0.727335    0.159237   -0.681976
     16          1           0        1.735295    1.266814   -1.621165
     17          6           0        0.644821    2.192592   -0.030644
     18          1           0        1.206502    3.135814    0.068153
     19          6           0       -0.625642    2.165304    0.379769
     20          1           0       -0.871935    2.625480    1.350590
     21          6           0       -1.759398    1.527930   -0.352387
     22          1           0       -1.403720    1.139470   -1.325468
     23          1           0       -2.526858    2.291102   -0.592604
     24          6           0       -2.425012    0.406918    0.436385
     25          1           0       -2.758888    0.796257    1.418782
     26          1           0       -1.671043   -0.369559    0.670592
     27          6           0       -3.602323   -0.222385   -0.284831
     28          1           0       -4.353238    0.559582   -0.516833
     29          1           0       -3.268570   -0.605985   -1.269947
     30          6           0       -4.266404   -1.344315    0.494129
     31          1           0       -3.511780   -2.120435    0.724758
     32          1           0       -4.595810   -0.956666    1.477196
     33          6           0       -5.440078   -1.963535   -0.238838
     34          1           0       -5.910942   -2.774676    0.338136
     35          1           0       -6.219715   -1.211998   -0.450502
     36          1           0       -5.126664   -2.385908   -1.208780
 ---------------------------------------------------------------------

 SCF Done:  E(RHF) =  -462.818188873     A.U. after   11 cycles

 The electronic state is 1-A.
 Alpha  occ. eigenvalues --  -11.04169 -11.04156 -11.04137 -11.04126 -11.03934
 Alpha  occ. eigenvalues --  -11.03903 -11.03583 -11.03551 -11.03438 -11.03305
 Alpha  occ. eigenvalues --  -11.00462 -11.00384  -1.05819  -1.04508  -1.01781
 Alpha  occ. eigenvalues --   -0.98446  -0.94397  -0.89252  -0.85127  -0.79083
 Alpha  occ. eigenvalues --   -0.77115  -0.75131  -0.74922  -0.67497  -0.62701
 Alpha  occ. eigenvalues --   -0.61408  -0.59102  -0.56519  -0.56198  -0.54867
 Alpha  occ. eigenvalues --   -0.54268  -0.52605  -0.52127  -0.50948  -0.49469
 Alpha  occ. eigenvalues --   -0.47850  -0.47310  -0.46440  -0.45223  -0.43654
 Alpha  occ. eigenvalues --   -0.43526  -0.42686  -0.42174  -0.41828  -0.41645
 Alpha  occ. eigenvalues --   -0.40812  -0.40513  -0.23993
 Alpha virt. eigenvalues --    0.27142   0.57094   0.57866   0.58063   0.58538
 Alpha virt. eigenvalues --    0.62231   0.63272   0.66153   0.66417   0.66704
 Alpha virt. eigenvalues --    0.67291   0.68276   0.68970   0.69421   0.69757

 Mulliken charges:
               1
     1  C   -0.166074
     2  H    0.052710
     3  H    0.052700
     4  H    0.055089
     5  C   -0.089074
     6  H    0.048541
     7  H    0.048387
     8  C   -0.089573
     9  H    0.046253
    10  H    0.046496
    11  C   -0.087471
    12  H    0.048316
    13  H    0.048879
    14  C   -0.100125
    15  H    0.052324
    16  H    0.046645
    17  C   -0.059933
    18  H    0.047975
    19  C   -0.060343
    20  H    0.048480
    21  C   -0.099795
    22  H    0.053206
    23  H    0.057699
    24  C   -0.089554
    25  H    0.045096
    26  H    0.045584
    27  C   -0.090708
    28  H    0.044487
    29  H    0.044670
    30  C   -0.089271
    31  H    0.047676
    32  H    0.047686
    33  C   -0.166132
    34  H    0.054485
    35  H    0.052349
    36  H    0.052321
 Sum of Mulliken charges =  -0.00000

 Dipole moment (field-independent basis, Debye):
    X=              0.0972    Y=             -0.1293    Z=             -0.0187  Tot=              0.1629
 Quadrupole moment (field-independent basis, Debye-Ang):
   XX=            -75.3618   YY=            -76.4419   ZZ=            -75.6319
   XY=             -0.1357   XZ=             -0.4251   YZ=              0.0355

 Normal termination of Gaussian 09 at Mon Dec  4 11:09:09 2017.
