 Gaussian 09, Revision E.01,
 Gaussian 09:  ES64L-G09RevE.01 30-Nov-2015

 -----------------------------
 # hf/sto-3g geom=connectivity
 -----------------------------

 -------------------
 Title Card Required
 -------------------
 Symbolic Z-matrix:
 Charge =  0 Multiplicity = 1

                         Standard orientation:
 ---------------------------------------------------------------------
 Center     Atomic      Atomic             Coordinates (Angstroms)
 Number     Number       Type             X           Y           Z
 ---------------------------------------------------------------------
      1          6           0       -1.030225    0.489228    6.762340
      2          1           0       -1.858457    1.218250    6.764279
      3          1           0       -0.099193    1.057540    6.928521
      4          1           0       -1.171794   -0.174071    7.629839
      5          6           0       -0.978212   -0.277833    5.455780
      6          1           0       -0.162056   -1.024762    5.487354
      7          1           0       -1.906755   -0.865917    5.324763
      8          6           0       -0.783597    0.619041    4.245717
      9          1           0        0.146544    1.209076    4.370978
     10          1           0       -1.599927    1.368250    4.207466
     11          6           0       -0.728975   -0.135116    2.930232
     12          1           0       -1.661065   -0.720516    2.801089
     13          1           0        0.085154   -0.885054    2.962243
     14          6           0       -0.527906    0.769353    1.720531
     15          1           0        0.413297    1.340037    1.833449
     16          1           0       -1.340361    1.523600    1.707854
     17          6           0       -0.511885    0.023005    0.428088
     18          1           0       -1.420661   -0.552893    0.188542
     19          6           0        0.511885   -0.023005   -0.428088
     20          1           0        1.420661    0.552893   -0.188542
     21          6           0        0.527906   -0.769353   -1.720531
     22          1           0       -0.413297   -1.340037   -1.833449
     23          1           0        1.340361   -1.523600   -1.707854
     24          6           0        0.728975    0.135116   -2.930232
     25          1           0        1.661065    0.720516   -2.801089
     26          1           0       -0.085154    0.885054   -2.962243
     27          6           0        0.783597   -0.619041   -4.245717
     28          1           0        1.599927   -1.368250   -4.207466
     29          1           0       -0.146544   -1.209076   -4.370978
     30          6           0        0.978212    0.277833   -5.455780
     31          1           0        0.162056    1.024762   -5.487354
     32          1           0        1.906755    0.865917   -5.324763
     33          6           0        1.030225   -0.489228   -6.762340
     34          1           0        1.171794    0.174071   -7.629839
     35          1           0        1.858457   -1.218250   -6.764279
     36          1           0        0.099193   -1.057540   -6.928521
 ---------------------------------------------------------------------

 SCF Done:  E(RHF) =  -462.874096479     A.U. after    9 cycles

 The electronic state is 1-AG.
 Alpha  occ. eigenvalues --  -11.04225 -11.04224 -11.04010 -11.04010 -11.03836
 Alpha  occ. eigenvalues --  -11.03836 -11.03708 -11.03708 -11.03350 -11.03350
 Alpha  occ. eigenvalues --  -11.00998 -11.00919  -1.05745  -1.04563  -1.01800
 Alpha  occ. eigenvalues --   -0.98654  -0.94434  -0.89521  -0.84804  -0.79235
 Alpha  occ. eigenvalues --   -0.76276  -0.75056  -0.74771  -0.69732  -0.61839
 Alpha  occ. eigenvalues --   -0.61532  -0.58068  -0.57671  -0.55697  -0.55169
 Alpha  occ. eigenvalues --   -0.53529  -0.53013  -0.52367  -0.51220  -0.48616
 Alpha  occ. eigenvalues --   -0.48040  -0.46947  -0.46395  -0.44654  -0.43634
 Alpha  occ. eigenvalues --   -0.43047  -0.42616  -0.42368  -0.42192  -0.41675
 Alpha  occ. eigenvalues --   -0.41660  -0.39190  -0.28351
 Alpha virt. eigenvalues --    0.32186   0.55038   0.57957   0.57978   0.59241
 Alpha virt. eigenvalues --    0.61302   0.63570   0.65290   0.66265   0.66862
 Alpha virt. eigenvalues --    0.67421   0.67781   0.69135   0.69742   0.70711

 Mulliken charges:
               1
     1  C   -0.166098
     2  H    0.052468
     3  H    0.052533
     4  H    0.054757
     5  C   -0.089164
     6  H    0.048262
     7  H    0.047964
     8  C   -0.090081
     9  H    0.045615
    10  H    0.045358
    11  C   -0.088687
    12  H    0.046508
    13  H    0.048137
    14  C   -0.099631
    15  H    0.052436
    16  H    0.052645
    17  C   -0.058626
    18  H    0.045606
    19  C   -0.058626
    20  H    0.045606
    21  C   -0.099631
    22  H    0.052436
    23  H    0.052645
    24  C   -0.088687
    25  H    0.046508
    26  H    0.048137
    27  C   -0.090081
    28  H    0.045358
    29  H    0.045615
    30  C   -0.089164
    31  H    0.048262
    32  H    0.047964
    33  C   -0.166098
    34  H    0.054757
    35  H    0.052468
    36  H    0.052533
 Sum of Mulliken charges =  -0.00000

 Dipole moment (field-independent basis, Debye):
    X=              0.0000    Y=             -0.0000    Z=              0.0000  Tot=              0.0000
 Quadrupole moment (field-independent basis, Debye-Ang):
   XX=            -74.3503   YY=            -75.9970   ZZ=            -76.4927
   XY=              0.2736   XZ=             -0.1527   YZ=              0.2517

 Normal termination of Gaussian 09 at Mon Dec  4 11:07:00 2017.
