 Gaussian 09, Revision D.01,
 Gaussian 09:  ES64L-G09RevD.01 24-Apr-2013

 -------------------------------------------------------------
 # Opt=(Z-mat,maxcycle=200) m06/def2svp Integral=SuperFineGrid
 -------------------------------------------------------------

 ------
 C12H24
 ------
 Symbolic Z-matrix:
 Charge =  0 Multiplicity = 1

 SCF Done:  E(RM06) =  -470.866443157     A.U. after   14 cycles
 SCF Done:  E(RM06) =  -470.898294661     A.U. after   12 cycles
 SCF Done:  E(RM06) =  -470.919235671     A.U. after   13 cycles
 SCF Done:  E(RM06) =  -470.921348337     A.U. after   11 cycles
 SCF Done:  E(RM06) =  -470.922096357     A.U. after   11 cycles
 SCF Done:  E(RM06) =  -470.922309128     A.U. after   10 cycles
 SCF Done:  E(RM06) =  -470.922357953     A.U. after   11 cycles
 SCF Done:  E(RM06) =  -470.922389677     A.U. after    8 cycles
 SCF Done:  E(RM06) =  -470.922401509     A.U. after    8 cycles
 SCF Done:  E(RM06) =  -470.922407029     A.U. after    9 cycles
 SCF Done:  E(RM06) =  -470.922408138     A.U. after    7 cycles
 SCF Done:  E(RM06) =  -470.922409064     A.U. after    8 cycles
 SCF Done:  E(RM06) =  -470.922409440     A.U. after    7 cycles
 SCF Done:  E(RM06) =  -470.922409854     A.U. after    8 cycles
 Optimization completed.
    -- Stationary point found.

                         Standard orientation:
 ---------------------------------------------------------------------
 Center     Atomic      Atomic             Coordinates (Angstroms)
 Number     Number       Type             X           Y           Z
 ---------------------------------------------------------------------
      1          6           0       -6.851459   -0.377488   -0.022452
      2          6           0       -5.589877    0.460825   -0.083535
      3          1           0       -7.763524    0.235538   -0.092648
      4          1           0       -6.906881   -0.946366    0.921356
      5          1           0       -6.882252   -1.112487   -0.844811
      6          6           0       -4.319514   -0.365663    0.014602
      7          1           0       -5.595619    1.213227    0.728321
      8          1           0       -5.569245    1.045945   -1.022940
      9          6           0       -3.047225    0.459187   -0.046209
     10          1           0       -4.308273   -1.120690   -0.797100
     11          1           0       -4.333942   -0.951511    0.955683
     12          6           0       -1.777987   -0.366605    0.055453
     13          1           0       -3.059838    1.215452    0.764085
     14          1           0       -3.031771    1.042852   -0.988446
     15          6           0       -0.505925    0.458572   -0.008686
     16          1           0       -1.766049   -1.124654   -0.753119
     17          1           0       -1.791910   -0.948139    0.998958
     18          6           0        0.763010   -0.366870    0.098730
     19          1           0       -0.519466    1.219271    0.797345
     20          1           0       -0.489822    1.036947   -0.954132
     21          6           0        2.034923    0.458031    0.028069
     22          1           0        0.774467   -1.131079   -0.703934
     23          1           0        0.749633   -0.940881    1.046717
     24          6           0        3.302187   -0.368671    0.144192
     25          1           0        2.019574    1.225928    0.826893
     26          1           0        2.051696    1.027187   -0.923180
     27          6           0        4.567576    0.465181    0.052805
     28          1           0        3.312834   -1.141861   -0.649640
     29          1           0        3.295315   -0.927547    1.099208
     30          6           0        5.845430   -0.339098    0.000249
     31          1           0        4.551836    1.238931    0.847042
     32          1           0        4.575300    1.020684   -0.903271
     33          6           0        7.174893   -0.132350   -0.094936
     34          1           0        7.808009    0.229247    0.730372
     35          1           0        7.699889   -0.324415   -1.038123
     36          1           0        5.603842   -0.991882   -0.874333
 ---------------------------------------------------------------------

 The electronic state is 1-A.
 Alpha  occ. eigenvalues --  -10.26047 -10.25028 -10.24966 -10.24486 -10.24345
 Alpha  occ. eigenvalues --  -10.24182 -10.24091 -10.24083 -10.24028 -10.23982
 Alpha  occ. eigenvalues --  -10.23931 -10.23612  -0.82525  -0.81283  -0.79230
 Alpha  occ. eigenvalues --   -0.76581  -0.73498  -0.69806  -0.65480  -0.61062
 Alpha  occ. eigenvalues --   -0.58344  -0.57707  -0.57405  -0.54732  -0.49591
 Alpha  occ. eigenvalues --   -0.48341  -0.46543  -0.45261  -0.45020  -0.44260
 Alpha  occ. eigenvalues --   -0.43479  -0.42610  -0.41191  -0.40530  -0.39585
 Alpha  occ. eigenvalues --   -0.38072  -0.36824  -0.36025  -0.35635  -0.34385
 Alpha  occ. eigenvalues --   -0.34118  -0.33451  -0.33038  -0.32924  -0.32465
 Alpha  occ. eigenvalues --   -0.32302  -0.31822  -0.24148
 Alpha virt. eigenvalues --   -0.02358   0.06344   0.06944   0.07544   0.08015
 Alpha virt. eigenvalues --    0.08371   0.08742   0.09558   0.09889   0.10635
 Alpha virt. eigenvalues --    0.11510   0.12351   0.12872   0.13662   0.14675

 Mulliken charges:
               1
     1  C   -0.062144
     2  C   -0.077838
     3  H    0.039316
     4  H    0.035142
     5  H    0.035150
     6  C   -0.062582
     7  H    0.028217
     8  H    0.028135
     9  C   -0.040025
    10  H    0.020454
    11  H    0.020499
    12  C   -0.039814
    13  H    0.019498
    14  H    0.019344
    15  C   -0.040484
    16  H    0.019852
    17  H    0.020021
    18  C   -0.039575
    19  H    0.019953
    20  H    0.019616
    21  C   -0.041410
    22  H    0.020716
    23  H    0.021270
    24  C   -0.074592
    25  H    0.022194
    26  H    0.019010
    27  C    0.002432
    28  H    0.023004
    29  H    0.034439
    30  C   -0.058940
    31  H    0.030535
    32  H    0.051235
    33  C   -0.137046
    34  H    0.050361
    35  H    0.059736
    36  H    0.014321
 Sum of Mulliken charges =   0.00000

 Dipole moment (field-independent basis, Debye):
    X=             -0.5752    Y=              0.4050    Z=             -0.4103  Tot=              0.8144
 Quadrupole moment (field-independent basis, Debye-Ang):
   XX=            -84.9927   YY=            -81.9721   ZZ=            -78.9550
   XY=              2.1875   XZ=             -2.6550   YZ=              0.6118

 Normal termination of Gaussian 09 at Tue Oct 17 17:31:02 2017.
