 Gaussian 09, Revision D.01,
 Gaussian 09:  ES64L-G09RevD.01 24-Apr-2013

 -------------------------------------------------------------
 # Opt=(Z-mat,maxcycle=200) m06/def2svp Integral=SuperFineGrid
 -------------------------------------------------------------

 ------
 C12H24
 ------
 Symbolic Z-matrix:
 Charge =  0 Multiplicity = 1

 SCF Done:  E(RM06) =  -470.868034501     A.U. after   14 cycles
 SCF Done:  E(RM06) =  -470.900299056     A.U. after   12 cycles
 SCF Done:  E(RM06) =  -470.921546258     A.U. after   13 cycles
 SCF Done:  E(RM06) =  -470.923156955     A.U. after   11 cycles
 SCF Done:  E(RM06) =  -470.923663543     A.U. after   11 cycles
 SCF Done:  E(RM06) =  -470.923806486     A.U. after   10 cycles
 SCF Done:  E(RM06) =  -470.923831948     A.U. after    9 cycles
 SCF Done:  E(RM06) =  -470.923839930     A.U. after    8 cycles
 SCF Done:  E(RM06) =  -470.923846243     A.U. after    8 cycles
 SCF Done:  E(RM06) =  -470.923847961     A.U. after    8 cycles
 SCF Done:  E(RM06) =  -470.923849724     A.U. after    8 cycles
 SCF Done:  E(RM06) =  -470.923850629     A.U. after    8 cycles
 SCF Done:  E(RM06) =  -470.923851172     A.U. after    7 cycles
 SCF Done:  E(RM06) =  -470.923851458     A.U. after    7 cycles
 SCF Done:  E(RM06) =  -470.923851608     A.U. after    7 cycles
 Optimization completed.
    -- Stationary point found.

                         Standard orientation:
 ---------------------------------------------------------------------
 Center     Atomic      Atomic             Coordinates (Angstroms)
 Number     Number       Type             X           Y           Z
 ---------------------------------------------------------------------
      1          6           0        6.755443   -0.548055    0.019201
      2          6           0        5.531295    0.334725   -0.123192
      3          1           0        7.693056    0.015037   -0.108828
      4          1           0        6.751497   -1.359091   -0.728893
      5          1           0        6.789222   -1.025758    1.013240
      6          6           0        4.226513   -0.422963    0.050138
      7          1           0        5.533956    0.828655   -1.113789
      8          1           0        5.571463    1.159610    0.613822
      9          6           0        2.990924    0.446621   -0.091299
     10          1           0        4.217417   -0.917296    1.042417
     11          1           0        4.181039   -1.250145   -0.686573
     12          6           0        1.687373   -0.310817    0.082984
     13          1           0        2.999733    0.939771   -1.083971
     14          1           0        3.036838    1.274053    0.644842
     15          6           0        0.451953    0.558747   -0.061565
     16          1           0        1.677186   -0.802230    1.076458
     17          1           0        1.641986   -1.139447   -0.651761
     18          6           0       -0.851152   -0.198994    0.115025
     19          1           0        0.460869    1.048569   -1.055777
     20          1           0        0.497644    1.388439    0.671934
     21          6           0       -2.086128    0.671260   -0.033077
     22          1           0       -0.861404   -0.686863    1.110101
     23          1           0       -0.896394   -1.029682   -0.617142
     24          6           0       -3.384814   -0.095116    0.143501
     25          1           0       -2.075550    1.158927   -1.027772
     26          1           0       -2.042387    1.500804    0.700396
     27          6           0       -4.613455    0.793169   -0.004827
     28          1           0       -3.396337   -0.584402    1.136796
     29          1           0       -3.442529   -0.918130   -0.593813
     30          6           0       -5.858244   -0.025543    0.231164
     31          1           0       -4.581472    1.279218   -1.000464
     32          1           0       -4.552824    1.617276    0.730068
     33          6           0       -6.512151   -1.051582   -0.352811
     34          1           0       -6.467256   -2.057431    0.081175
     35          1           0       -7.115004   -0.961915   -1.270191
     36          1           0       -5.646077   -0.386683    1.266279
 ---------------------------------------------------------------------

 The electronic state is 1-A.
 Alpha  occ. eigenvalues --  -10.25923 -10.25073 -10.24973 -10.24747 -10.24455
 Alpha  occ. eigenvalues --  -10.24293 -10.24160 -10.24110 -10.24083 -10.24022
 Alpha  occ. eigenvalues --  -10.23965 -10.23636  -0.82670  -0.81396  -0.79299
 Alpha  occ. eigenvalues --   -0.76516  -0.73343  -0.69762  -0.65530  -0.61113
 Alpha  occ. eigenvalues --   -0.58422  -0.57755  -0.57453  -0.54785  -0.49694
 Alpha  occ. eigenvalues --   -0.48458  -0.46635  -0.45123  -0.44989  -0.44352
 Alpha  occ. eigenvalues --   -0.43148  -0.42809  -0.41282  -0.40416  -0.39697
 Alpha  occ. eigenvalues --   -0.37771  -0.37255  -0.36127  -0.35461  -0.34632
 Alpha  occ. eigenvalues --   -0.34168  -0.33491  -0.33154  -0.32783  -0.32509
 Alpha  occ. eigenvalues --   -0.32340  -0.31822  -0.24321
 Alpha virt. eigenvalues --   -0.02216   0.06224   0.06751   0.07393   0.07898
 Alpha virt. eigenvalues --    0.08333   0.08811   0.09532   0.09880   0.10903
 Alpha virt. eigenvalues --    0.11410   0.12430   0.12875   0.13987   0.14720

 Mulliken charges:
               1
     1  C   -0.062175
     2  C   -0.077833
     3  H    0.039410
     4  H    0.035175
     5  H    0.035144
     6  C   -0.062665
     7  H    0.028259
     8  H    0.028259
     9  C   -0.040040
    10  H    0.020462
    11  H    0.020515
    12  C   -0.039977
    13  H    0.019603
    14  H    0.019566
    15  C   -0.040369
    16  H    0.019925
    17  H    0.020086
    18  C   -0.039940
    19  H    0.020324
    20  H    0.020073
    21  C   -0.037627
    22  H    0.021178
    23  H    0.021755
    24  C   -0.073685
    25  H    0.023481
    26  H    0.021348
    27  C    0.010893
    28  H    0.021097
    29  H    0.029743
    30  C   -0.039937
    31  H    0.030372
    32  H    0.032989
    33  C   -0.146120
    34  H    0.060874
    35  H    0.050590
    36  H    0.009251
 Sum of Mulliken charges =   0.00000

 Dipole moment (field-independent basis, Debye):
    X=              0.9253    Y=             -0.0888    Z=              0.0062  Tot=              0.9296
 Quadrupole moment (field-independent basis, Debye-Ang):
   XX=            -89.7499   YY=            -80.1499   ZZ=            -79.3389
   XY=              1.5309   XZ=              0.6865   YZ=              0.2370

 Normal termination of Gaussian 09 at Tue Oct 17 17:34:00 2017.
