 Gaussian 09, Revision E.01,
 Gaussian 09:  ES64L-G09RevE.01 30-Nov-2015

 -----------------------------
 # hf/sto-3g geom=connectivity
 -----------------------------

 -------------------
 Title Card Required
 -------------------
 Symbolic Z-matrix:
 Charge =  0 Multiplicity = 1

                         Standard orientation:
 ---------------------------------------------------------------------
 Center     Atomic      Atomic             Coordinates (Angstroms)
 Number     Number       Type             X           Y           Z
 ---------------------------------------------------------------------
      1          6           0        6.038219   -1.611932    0.002720
      2          1           0        6.162815   -1.716823   -1.088572
      3          1           0        5.603946   -2.557159    0.370644
      4          1           0        7.043281   -1.516803    0.442450
      5          6           0        5.149241   -0.431769    0.342010
      6          1           0        5.063854   -0.325372    1.440372
      7          1           0        5.618512    0.508235   -0.006381
      8          6           0        3.757438   -0.543084   -0.255488
      9          1           0        3.281989   -1.482320    0.092044
     10          1           0        3.836517   -0.647599   -1.356394
     11          6           0        2.855716    0.631249    0.076283
     12          1           0        3.327241    1.570163   -0.276234
     13          1           0        2.772510    0.740545    1.175087
     14          6           0        1.459081    0.511210   -0.521105
     15          1           0        0.974547   -0.413579   -0.154654
     16          1           0        1.556619    0.388202   -1.618596
     17          6           0        0.590876    1.687390   -0.220237
     18          1           0        0.955828    2.664334   -0.577035
     19          6           0       -0.556711    1.649827    0.461594
     20          1           0       -0.517625    1.755388    1.558062
     21          6           0       -1.910477    1.440711   -0.131103
     22          1           0       -1.831374    1.390900   -1.233626
     23          1           0       -2.554772    2.316033    0.087589
     24          6           0       -2.604591    0.188957    0.391571
     25          1           0       -2.660711    0.233939    1.497459
     26          1           0       -1.976937   -0.695128    0.166441
     27          6           0       -3.996641   -0.011971   -0.177692
     28          1           0       -4.619903    0.876093    0.050469
     29          1           0       -3.940108   -0.050643   -1.284173
     30          6           0       -4.691378   -1.261228    0.335347
     31          1           0       -4.063730   -2.143770    0.106903
     32          1           0       -4.743377   -1.218527    1.440187
     33          6           0       -6.080362   -1.448981   -0.242283
     34          1           0       -6.571025   -2.358097    0.138928
     35          1           0       -6.732933   -0.593382    0.001736
     36          1           0       -6.047631   -1.526899   -1.342407
 ---------------------------------------------------------------------

 SCF Done:  E(RHF) =  -462.660067342     A.U. after   16 cycles

 The electronic state is 1-A.
 Alpha  occ. eigenvalues --  -11.04410 -11.04244 -11.04159 -11.04117 -11.04066
 Alpha  occ. eigenvalues --  -11.03784 -11.03506 -11.03320 -11.03206 -11.03202
 Alpha  occ. eigenvalues --  -10.98930 -10.98813  -1.05560  -1.04464  -1.01478
 Alpha  occ. eigenvalues --   -0.98474  -0.94182  -0.89289  -0.84808  -0.79097
 Alpha  occ. eigenvalues --   -0.76578  -0.75176  -0.74734  -0.67929  -0.62149
 Alpha  occ. eigenvalues --   -0.61435  -0.58257  -0.56838  -0.56167  -0.54909
 Alpha  occ. eigenvalues --   -0.53696  -0.52783  -0.51677  -0.50800  -0.50142
 Alpha  occ. eigenvalues --   -0.48234  -0.47182  -0.45966  -0.45686  -0.43784
 Alpha  occ. eigenvalues --   -0.43109  -0.42716  -0.42190  -0.41871  -0.41492
 Alpha  occ. eigenvalues --   -0.41436  -0.40266  -0.14822
 Alpha virt. eigenvalues --    0.17556   0.57484   0.57719   0.58279   0.58651
 Alpha virt. eigenvalues --    0.62819   0.63121   0.66148   0.66617   0.67112
 Alpha virt. eigenvalues --    0.67390   0.68492   0.69058   0.69474   0.70547

 Mulliken charges:
               1
     1  C   -0.166045
     2  H    0.052943
     3  H    0.052921
     4  H    0.055375
     5  C   -0.088962
     6  H    0.048805
     7  H    0.048744
     8  C   -0.089223
     9  H    0.047062
    10  H    0.047604
    11  C   -0.086337
    12  H    0.050194
    13  H    0.049326
    14  C   -0.097198
    15  H    0.051383
    16  H    0.042135
    17  C   -0.060779
    18  H    0.047187
    19  C   -0.062292
    20  H    0.047933
    21  C   -0.095982
    22  H    0.052217
    23  H    0.061838
    24  C   -0.089871
    25  H    0.043307
    26  H    0.044564
    27  C   -0.091299
    28  H    0.043183
    29  H    0.043929
    30  C   -0.089359
    31  H    0.047365
    32  H    0.047192
    33  C   -0.166145
    34  H    0.054097
    35  H    0.052057
    36  H    0.052133
 Sum of Mulliken charges =  -0.00000

 Dipole moment (field-independent basis, Debye):
    X=              0.2506    Y=             -0.0730    Z=             -0.0060  Tot=              0.2610
 Quadrupole moment (field-independent basis, Debye-Ang):
   XX=            -75.8472   YY=            -76.2175   ZZ=            -75.0740
   XY=             -0.5220   XZ=             -0.3632   YZ=             -0.4540

 Normal termination of Gaussian 09 at Mon Dec  4 11:08:01 2017.
