 Gaussian 09, Revision E.01,
 Gaussian 09:  ES64L-G09RevE.01 30-Nov-2015

 -----------------------------
 # hf/sto-3g geom=connectivity
 -----------------------------

 -------------------
 Title Card Required
 -------------------
 Symbolic Z-matrix:
 Charge =  0 Multiplicity = 1

                         Standard orientation:
 ---------------------------------------------------------------------
 Center     Atomic      Atomic             Coordinates (Angstroms)
 Number     Number       Type             X           Y           Z
 ---------------------------------------------------------------------
      1          6           0        5.265822   -2.110452   -0.142240
      2          1           0        5.732696   -1.759202   -1.078240
      3          1           0        4.619975   -2.965740   -0.404497
      4          1           0        6.070620   -2.490670    0.506064
      5          6           0        4.468482   -1.004837    0.521121
      6          1           0        4.036089   -1.368425    1.472883
      7          1           0        5.139888   -0.171959    0.805247
      8          6           0        3.352731   -0.465748   -0.356942
      9          1           0        2.675932   -1.295928   -0.642838
     10          1           0        3.780308   -0.097737   -1.311361
     11          6           0        2.545258    0.641563    0.294278
     12          1           0        3.220010    1.474692    0.574934
     13          1           0        2.115118    0.279686    1.248355
     14          6           0        1.423871    1.174410   -0.589145
     15          1           0        0.734074    0.350854   -0.854153
     16          1           0        1.865268    1.520076   -1.545605
     17          6           0        0.658248    2.287732    0.044919
     18          1           0        1.239536    3.184090    0.316141
     19          6           0       -0.646139    2.267695    0.330282
     20          1           0       -0.998715    2.834743    1.207244
     21          6           0       -1.686432    1.507135   -0.422737
     22          1           0       -1.226383    1.014670   -1.300307
     23          1           0       -2.442267    2.208518   -0.830053
     24          6           0       -2.403434    0.469244    0.431992
     25          1           0       -2.842752    0.964466    1.320764
     26          1           0       -1.660125   -0.246532    0.833733
     27          6           0       -3.488326   -0.283453   -0.315464
     28          1           0       -4.228939    0.438142   -0.715419
     29          1           0       -3.048982   -0.773320   -1.207653
     30          6           0       -4.202798   -1.323405    0.529841
     31          1           0       -3.458486   -2.039244    0.928068
     32          1           0       -4.637700   -0.829625    1.419920
     33          6           0       -5.283111   -2.067418   -0.230128
     34          1           0       -5.791842   -2.817284    0.395536
     35          1           0       -6.053675   -1.374491   -0.608976
     36          1           0       -4.864679   -2.594575   -1.104448
 ---------------------------------------------------------------------

 SCF Done:  E(RHF) =  -462.847619312     A.U. after   10 cycles

 The electronic state is 1-A.
 Alpha  occ. eigenvalues --  -11.04136 -11.04114 -11.04102 -11.04044 -11.03975
 Alpha  occ. eigenvalues --  -11.03847 -11.03683 -11.03625 -11.03416 -11.03334
 Alpha  occ. eigenvalues --  -11.00773 -11.00695  -1.05898  -1.04506  -1.01854
 Alpha  occ. eigenvalues --   -0.98425  -0.94442  -0.89224  -0.85217  -0.79056
 Alpha  occ. eigenvalues --   -0.77315  -0.75135  -0.74947  -0.67320  -0.62921
 Alpha  occ. eigenvalues --   -0.61381  -0.59310  -0.56601  -0.56025  -0.54849
 Alpha  occ. eigenvalues --   -0.54433  -0.52590  -0.52211  -0.51069  -0.49105
 Alpha  occ. eigenvalues --   -0.47768  -0.47316  -0.46613  -0.45009  -0.43905
 Alpha  occ. eigenvalues --   -0.43370  -0.42682  -0.42108  -0.41837  -0.41541
 Alpha  occ. eigenvalues --   -0.40894  -0.40102  -0.26263
 Alpha virt. eigenvalues --    0.29713   0.56333   0.57922   0.58021   0.58725
 Alpha virt. eigenvalues --    0.61634   0.63574   0.65737   0.66273   0.66674
 Alpha virt. eigenvalues --    0.67421   0.67956   0.69205   0.69381   0.70031

 Mulliken charges:
               1
     1  C   -0.166084
     2  H    0.052641
     3  H    0.052614
     4  H    0.054993
     5  C   -0.089111
     6  H    0.048421
     7  H    0.048285
     8  C   -0.089729
     9  H    0.045902
    10  H    0.046133
    11  C   -0.087828
    12  H    0.047679
    13  H    0.048485
    14  C   -0.101118
    15  H    0.053123
    16  H    0.048419
    17  C   -0.059692
    18  H    0.048166
    19  C   -0.059949
    20  H    0.048507
    21  C   -0.100889
    22  H    0.053726
    23  H    0.055956
    24  C   -0.089368
    25  H    0.045660
    26  H    0.046208
    27  C   -0.090485
    28  H    0.044878
    29  H    0.044766
    30  C   -0.089246
    31  H    0.047830
    32  H    0.047841
    33  C   -0.166125
    34  H    0.054605
    35  H    0.052425
    36  H    0.052359
 Sum of Mulliken charges =  -0.00000

 Dipole moment (field-independent basis, Debye):
    X=              0.0593    Y=             -0.1415    Z=             -0.0237  Tot=              0.1552
 Quadrupole moment (field-independent basis, Debye-Ang):
   XX=            -75.2531   YY=            -76.4826   ZZ=            -75.8053
   XY=             -0.0516   XZ=             -0.3350   YZ=              0.1925

 Normal termination of Gaussian 09 at Mon Dec  4 11:09:09 2017.
