 Gaussian 09, Revision E.01,
 Gaussian 09:  ES64L-G09RevE.01 30-Nov-2015

 -----------------------------
 # hf/sto-3g geom=connectivity
 -----------------------------

 -------------------
 Title Card Required
 -------------------
 Symbolic Z-matrix:
 Charge =  0 Multiplicity = 1

                         Standard orientation:
 ---------------------------------------------------------------------
 Center     Atomic      Atomic             Coordinates (Angstroms)
 Number     Number       Type             X           Y           Z
 ---------------------------------------------------------------------
      1          6           0        5.602672   -1.923564   -0.070813
      2          1           0        5.869197   -1.794914   -1.133761
      3          1           0        5.021625   -2.858413    0.005714
      4          1           0        6.539341   -2.069873    0.489372
      5          6           0        4.806273   -0.739842    0.441763
      6          1           0        4.577486   -0.874043    1.516313
      7          1           0        5.418421    0.180727    0.386742
      8          6           0        3.509745   -0.520134   -0.318010
      9          1           0        2.891723   -1.438916   -0.264328
     10          1           0        3.732888   -0.382672   -1.395267
     11          6           0        2.701248    0.661425    0.184470
     12          1           0        3.316084    1.581566    0.125463
     13          1           0        2.474856    0.529619    1.260394
     14          6           0        1.399014    0.873363   -0.577856
     15          1           0        0.770912   -0.034519   -0.503468
     16          1           0        1.637851    0.989674   -1.654220
     17          6           0        0.628091    2.059076   -0.100926
     18          1           0        1.142746    3.031545   -0.166868
     19          6           0       -0.602125    2.026723    0.417516
     20          1           0       -0.742325    2.373514    1.454335
     21          6           0       -1.822909    1.523676   -0.278423
     22          1           0       -1.570749    1.244445   -1.318971
     23          1           0       -2.572363    2.336990   -0.355695
     24          6           0       -2.468769    0.339017    0.429616
     25          1           0       -2.698387    0.617217    1.477491
     26          1           0       -1.733872   -0.486287    0.500602
     27          6           0       -3.731585   -0.155824   -0.250578
     28          1           0       -4.463001    0.674549   -0.319013
     29          1           0       -3.502059   -0.427995   -1.300452
     30          6           0       -4.376809   -1.340251    0.447510
     31          1           0       -3.641552   -2.164788    0.514941
     32          1           0       -4.601998   -1.063967    1.495440
     33          6           0       -5.636556   -1.823786   -0.243442
     34          1           0       -6.092640   -2.682120    0.274064
     35          1           0       -6.396198   -1.025065   -0.292748
     36          1           0       -5.427743   -2.135550   -1.281043
 ---------------------------------------------------------------------

 SCF Done:  E(RHF) =  -462.776315982     A.U. after   12 cycles

 The electronic state is 1-A.
 Alpha  occ. eigenvalues --  -11.04241 -11.04176 -11.04171 -11.04133 -11.03958
 Alpha  occ. eigenvalues --  -11.03887 -11.03488 -11.03459 -11.03455 -11.03273
 Alpha  occ. eigenvalues --  -11.00041 -10.99963  -1.05729  -1.04502  -1.01690
 Alpha  occ. eigenvalues --   -0.98461  -0.94336  -0.89273  -0.85025  -0.79101
 Alpha  occ. eigenvalues --   -0.76919  -0.75144  -0.74870  -0.67658  -0.62486
 Alpha  occ. eigenvalues --   -0.61430  -0.58841  -0.56501  -0.56315  -0.54884
 Alpha  occ. eigenvalues --   -0.54079  -0.52656  -0.51992  -0.50824  -0.49839
 Alpha  occ. eigenvalues --   -0.48015  -0.47265  -0.46289  -0.45425  -0.43766
 Alpha  occ. eigenvalues --   -0.43328  -0.42699  -0.42203  -0.41860  -0.41601
 Alpha  occ. eigenvalues --   -0.41046  -0.40489  -0.21238
 Alpha virt. eigenvalues --    0.24119   0.57427   0.57776   0.58242   0.58414
 Alpha virt. eigenvalues --    0.62568   0.63141   0.66246   0.66462   0.67008
 Alpha virt. eigenvalues --    0.67208   0.68635   0.68706   0.69450   0.69889

 Mulliken charges:
               1
     1  C   -0.166064
     2  H    0.052783
     3  H    0.052780
     4  H    0.055182
     5  C   -0.089036
     6  H    0.048639
     7  H    0.048497
     8  C   -0.089434
     9  H    0.046561
    10  H    0.046868
    11  C   -0.087083
    12  H    0.048941
    13  H    0.049101
    14  C   -0.099102
    15  H    0.051881
    16  H    0.044945
    17  C   -0.060379
    18  H    0.047800
    19  C   -0.060973
    20  H    0.048440
    21  C   -0.098557
    22  H    0.052920
    23  H    0.059241
    24  C   -0.089645
    25  H    0.044478
    26  H    0.045035
    27  C   -0.090912
    28  H    0.044062
    29  H    0.044510
    30  C   -0.089297
    31  H    0.047547
    32  H    0.047518
    33  C   -0.166138
    34  H    0.054357
    35  H    0.052258
    36  H    0.052274
 Sum of Mulliken charges =  -0.00000

 Dipole moment (field-independent basis, Debye):
    X=              0.1405    Y=             -0.1139    Z=             -0.0148  Tot=              0.1815
 Quadrupole moment (field-independent basis, Debye-Ang):
   XX=            -75.5126   YY=            -76.3858   ZZ=            -75.4334
   XY=             -0.2561   XZ=             -0.4527   YZ=             -0.1423

 Normal termination of Gaussian 09 at Mon Dec  4 11:09:07 2017.
