 Gaussian 09, Revision E.01,
 Gaussian 09:  ES64L-G09RevE.01 30-Nov-2015

 -----------------------------
 # hf/sto-3g geom=connectivity
 -----------------------------

 -------------------
 Title Card Required
 -------------------
 Symbolic Z-matrix:
 Charge =  0 Multiplicity = 1

                         Standard orientation:
 ---------------------------------------------------------------------
 Center     Atomic      Atomic             Coordinates (Angstroms)
 Number     Number       Type             X           Y           Z
 ---------------------------------------------------------------------
      1          6           0        6.823231   -0.415489    0.145862
      2          1           0        6.954447   -1.025317   -0.764268
      3          1           0        6.798649   -1.112377    1.000940
      4          1           0        7.721891    0.211263    0.256102
      5          6           0        5.553356    0.409448    0.074573
      6          1           0        5.457830    1.036743    0.981428
      7          1           0        5.612642    1.123595   -0.769038
      8          6           0        4.301219   -0.436366   -0.077941
      9          1           0        4.235925   -1.152336    0.765929
     10          1           0        4.390146   -1.065520   -0.986472
     11          6           0        3.021702    0.375954   -0.150108
     12          1           0        3.083396    1.087818   -0.997224
     13          1           0        2.927068    1.006475    0.755279
     14          6           0        1.768506   -0.478264   -0.297356
     15          1           0        1.689651   -1.175889    0.557861
     16          1           0        1.881698   -1.114354   -1.198305
     17          6           0        0.518458    0.330239   -0.404148
     18          1           0        0.467108    1.035739   -1.249457
     19          6           0       -0.508872    0.285804    0.447836
     20          1           0       -0.363772   -0.219459    1.416634
     21          6           0       -1.871630    0.838093    0.191775
     22          1           0       -1.886793    1.355398   -0.786214
     23          1           0       -2.110557    1.612482    0.948324
     24          6           0       -2.963357   -0.224293    0.228371
     25          1           0       -2.928728   -0.754110    1.201128
     26          1           0       -2.743533   -0.997263   -0.533491
     27          6           0       -4.356679    0.333661    0.005711
     28          1           0       -4.570730    1.106881    0.770880
     29          1           0       -4.388514    0.868686   -0.964716
     30          6           0       -5.448607   -0.721477    0.035460
     31          1           0       -5.228396   -1.491474   -0.728492
     32          1           0       -5.411140   -1.253795    1.005220
     33          6           0       -6.834515   -0.149560   -0.188939
     34          1           0       -7.614937   -0.926028   -0.164414
     35          1           0       -7.087134    0.598289    0.582001
     36          1           0       -6.903078    0.358051   -1.166204
 ---------------------------------------------------------------------

 SCF Done:  E(RHF) =  -462.867919856     A.U. after   10 cycles

 The electronic state is 1-A.
 Alpha  occ. eigenvalues --  -11.04234 -11.04205 -11.04046 -11.03974 -11.03935
 Alpha  occ. eigenvalues --  -11.03765 -11.03737 -11.03649 -11.03373 -11.03328
 Alpha  occ. eigenvalues --  -11.00935 -11.00857  -1.05735  -1.04560  -1.01787
 Alpha  occ. eigenvalues --   -0.98648  -0.94426  -0.89514  -0.84804  -0.79230
 Alpha  occ. eigenvalues --   -0.76284  -0.75055  -0.74773  -0.69660  -0.61850
 Alpha  occ. eigenvalues --   -0.61524  -0.58029  -0.57683  -0.55715  -0.55161
 Alpha  occ. eigenvalues --   -0.53509  -0.53035  -0.52344  -0.51221  -0.48650
 Alpha  occ. eigenvalues --   -0.48064  -0.46977  -0.46382  -0.44727  -0.43636
 Alpha  occ. eigenvalues --   -0.43042  -0.42607  -0.42412  -0.42118  -0.41690
 Alpha  occ. eigenvalues --   -0.41637  -0.39325  -0.27792
 Alpha virt. eigenvalues --    0.31530   0.55322   0.57962   0.57976   0.59202
 Alpha virt. eigenvalues --    0.61439   0.63542   0.65415   0.66304   0.66845
 Alpha virt. eigenvalues --    0.67407   0.67833   0.69144   0.69720   0.70715

 Mulliken charges:
               1
     1  C   -0.166107
     2  H    0.052395
     3  H    0.052461
     4  H    0.054663
     5  C   -0.089198
     6  H    0.048144
     7  H    0.047863
     8  C   -0.090272
     9  H    0.045319
    10  H    0.044987
    11  C   -0.089036
    12  H    0.046006
    13  H    0.047643
    14  C   -0.099482
    15  H    0.052608
    16  H    0.054452
    17  C   -0.058862
    18  H    0.045786
    19  C   -0.058675
    20  H    0.045492
    21  C   -0.099629
    22  H    0.052483
    23  H    0.050780
    24  C   -0.088300
    25  H    0.047009
    26  H    0.048512
    27  C   -0.089900
    28  H    0.045731
    29  H    0.045924
    30  C   -0.089130
    31  H    0.048362
    32  H    0.048062
    33  C   -0.166089
    34  H    0.054848
    35  H    0.052542
    36  H    0.052607
 Sum of Mulliken charges =  -0.00000

 Dipole moment (field-independent basis, Debye):
    X=             -0.0465    Y=             -0.0369    Z=             -0.0102  Tot=              0.0602
 Quadrupole moment (field-independent basis, Debye-Ang):
   XX=            -76.3542   YY=            -75.9937   ZZ=            -74.5157
   XY=             -0.1662   XZ=             -0.5128   YZ=             -0.3826

 Normal termination of Gaussian 09 at Mon Dec  4 11:06:59 2017.
