 Gaussian 09, Revision D.01,
 Gaussian 09:  ES64L-G09RevD.01 24-Apr-2013

 -------------------------------------------------------------
 # Opt=(Z-mat,maxcycle=200) m06/def2svp Integral=SuperFineGrid
 -------------------------------------------------------------

 ------
 C12H24
 ------
 Symbolic Z-matrix:
 Charge =  0 Multiplicity = 1

 SCF Done:  E(RM06) =  -470.974938616     A.U. after   12 cycles
 SCF Done:  E(RM06) =  -470.978991717     A.U. after   10 cycles
 SCF Done:  E(RM06) =  -470.979324242     A.U. after    9 cycles
 SCF Done:  E(RM06) =  -470.979345827     A.U. after    8 cycles
 SCF Done:  E(RM06) =  -470.979349194     A.U. after    8 cycles
 SCF Done:  E(RM06) =  -470.979350220     A.U. after    8 cycles
 Optimization completed.
    -- Stationary point found.

                         Standard orientation:
 ---------------------------------------------------------------------
 Center     Atomic      Atomic             Coordinates (Angstroms)
 Number     Number       Type             X           Y           Z
 ---------------------------------------------------------------------
      1          6           0       -6.814818   -0.415493    0.094268
      2          6           0       -5.561480    0.437234    0.092913
      3          1           0       -7.732353    0.191437    0.142843
      4          1           0       -6.827586   -1.104330    0.956125
      5          1           0       -6.876081   -1.036056   -0.816003
      6          6           0       -4.283672   -0.381052    0.027686
      7          1           0       -5.536744    1.075357    0.997032
      8          1           0       -5.583938    1.141900   -0.760435
      9          6           0       -3.019348    0.458204    0.024652
     10          1           0       -4.302873   -1.021422   -0.877085
     11          1           0       -4.255140   -1.086930    0.882074
     12          6           0       -1.742662   -0.359960   -0.039035
     13          1           0       -3.000743    1.098962    0.928950
     14          1           0       -3.047518    1.163041   -0.830396
     15          6           0       -0.478472    0.479761   -0.042932
     16          1           0       -1.761097   -1.001262   -0.942904
     17          1           0       -1.713764   -1.064249    0.816367
     18          6           0        0.798022   -0.338831   -0.105183
     19          1           0       -0.460176    1.121666    0.860497
     20          1           0       -0.506618    1.183436   -0.898883
     21          6           0        2.062000    0.501112   -0.109499
     22          1           0        0.779780   -0.981108   -1.008336
     23          1           0        0.826662   -1.041933    0.751050
     24          6           0        3.337319   -0.318834   -0.171418
     25          1           0        2.080695    1.143021    0.793843
     26          1           0        2.034553    1.204475   -0.965773
     27          6           0        4.602725    0.529763   -0.168339
     28          1           0        3.323403   -0.955768   -1.078103
     29          1           0        3.369970   -1.024453    0.681263
     30          6           0        5.851433   -0.282480   -0.267221
     31          1           0        4.634414    1.154913    0.743887
     32          1           0        4.554092    1.236654   -1.020834
     33          6           0        6.839386   -0.290973    0.626489
     34          1           0        7.731845   -0.910322    0.496297
     35          1           0        6.792589    0.327341    1.531231
     36          1           0        5.934024   -0.925072   -1.156993
 ---------------------------------------------------------------------

 The electronic state is 1-A.
 Alpha  occ. eigenvalues --  -10.24984 -10.24717 -10.24411 -10.24208 -10.24088
 Alpha  occ. eigenvalues --  -10.24060 -10.24027 -10.23981 -10.23945 -10.23936
 Alpha  occ. eigenvalues --  -10.23904 -10.23594  -0.82408  -0.81224  -0.79231
 Alpha  occ. eigenvalues --   -0.76542  -0.73268  -0.69468  -0.65190  -0.60855
 Alpha  occ. eigenvalues --   -0.58222  -0.57622  -0.57352  -0.55176  -0.49522
 Alpha  occ. eigenvalues --   -0.48402  -0.46986  -0.45395  -0.44952  -0.43982
 Alpha  occ. eigenvalues --   -0.43271  -0.42436  -0.40870  -0.40492  -0.39058
 Alpha  occ. eigenvalues --   -0.37703  -0.37122  -0.35977  -0.35254  -0.34620
 Alpha  occ. eigenvalues --   -0.34040  -0.33837  -0.33381  -0.32859  -0.32398
 Alpha  occ. eigenvalues --   -0.32264  -0.31744  -0.26841
 Alpha virt. eigenvalues --    0.02161   0.06403   0.07012   0.07668   0.08083
 Alpha virt. eigenvalues --    0.08398   0.08898   0.09463   0.09932   0.10789
 Alpha virt. eigenvalues --    0.10976   0.12491   0.13338   0.13464   0.14768

 Mulliken charges:
               1
     1  C   -0.062160
     2  C   -0.077757
     3  H    0.039258
     4  H    0.035104
     5  H    0.035091
     6  C   -0.062589
     7  H    0.028179
     8  H    0.028124
     9  C   -0.039911
    10  H    0.020357
    11  H    0.020434
    12  C   -0.039879
    13  H    0.019418
    14  H    0.019329
    15  C   -0.040949
    16  H    0.019664
    17  H    0.019899
    18  C   -0.038171
    19  H    0.019847
    20  H    0.019594
    21  C   -0.040077
    22  H    0.020011
    23  H    0.020898
    24  C   -0.073319
    25  H    0.021302
    26  H    0.019250
    27  C    0.017678
    28  H    0.025075
    29  H    0.029933
    30  C   -0.084965
    31  H    0.021156
    32  H    0.037990
    33  C   -0.086578
    34  H    0.043541
    35  H    0.036927
    36  H    0.028296
 Sum of Mulliken charges =   0.00000

 Dipole moment (field-independent basis, Debye):
    X=             -0.4414    Y=              0.0892    Z=             -0.1372  Tot=              0.4708
 Quadrupole moment (field-independent basis, Debye-Ang):
   XX=            -84.3378   YY=            -81.3338   ZZ=            -78.7876
   XY=             -0.5977   XZ=             -0.2574   YZ=              0.8004

 Normal termination of Gaussian 09 at Tue Oct 17 17:08:33 2017.
