 Gaussian 09, Revision D.01,
 Gaussian 09:  ES64L-G09RevD.01 24-Apr-2013

 ----------------------------------------
 # opt=qst2 aug-cc-pvtz geom=connectivity
 ----------------------------------------

 ------------------------------
 1chloro,flouro-butane reactant
 ------------------------------
 Symbolic Z-matrix:
 Charge = -1 Multiplicity = 1

 -----------------------------------
 1-chloro-1-flouro-butane transition
 -----------------------------------
 Symbolic Z-matrix:
 Charge = -1 Multiplicity = 1

 SCF Done:  E(RHF) =  -715.736538349     A.U. after   15 cycles
 SCF Done:  E(RHF) =  -715.734336159     A.U. after   12 cycles
 SCF Done:  E(RHF) =  -715.745029857     A.U. after   13 cycles
 SCF Done:  E(RHF) =  -715.753630940     A.U. after   12 cycles
 SCF Done:  E(RHF) =  -715.759058170     A.U. after   11 cycles
 SCF Done:  E(RHF) =  -715.762006131     A.U. after   11 cycles
 SCF Done:  E(RHF) =  -715.763993173     A.U. after   11 cycles
 SCF Done:  E(RHF) =  -715.763735860     A.U. after   11 cycles
 SCF Done:  E(RHF) =  -715.763811319     A.U. after   11 cycles
 SCF Done:  E(RHF) =  -715.763914799     A.U. after   10 cycles
 SCF Done:  E(RHF) =  -715.763999621     A.U. after    9 cycles
 SCF Done:  E(RHF) =  -715.763905137     A.U. after   10 cycles
 SCF Done:  E(RHF) =  -715.764005099     A.U. after   10 cycles
 SCF Done:  E(RHF) =  -715.764005857     A.U. after    8 cycles
 SCF Done:  E(RHF) =  -715.764006172     A.U. after    7 cycles
 SCF Done:  E(RHF) =  -715.764006312     A.U. after    8 cycles
 SCF Done:  E(RHF) =  -715.764007067     A.U. after    8 cycles
 SCF Done:  E(RHF) =  -715.764007285     A.U. after    7 cycles
 SCF Done:  E(RHF) =  -715.764007446     A.U. after    8 cycles
 SCF Done:  E(RHF) =  -715.764007490     A.U. after    6 cycles
 Optimization completed.
    -- Stationary point found.

                         Standard orientation:
 ---------------------------------------------------------------------
 Center     Atomic      Atomic             Coordinates (Angstroms)
 Number     Number       Type             X           Y           Z
 ---------------------------------------------------------------------
      1          6           0       -0.701268    0.765289    0.052656
      2          1           0       -1.317109    1.318742    0.715112
      3          1           0       -0.807121    0.972370   -0.980814
      4          6           0        0.539968    0.114221    0.581846
      5          1           0        1.107195    0.926919    1.012550
      6          1           0        0.269643   -0.580576    1.366686
      7          6           0        1.367674   -0.583058   -0.489679
      8          1           0        0.768398   -1.351421   -0.965436
      9          1           0        1.624360    0.146973   -1.249748
     10          6           0        2.642877   -1.203416    0.072609
     11          1           0        3.271969   -0.449815    0.536122
     12          1           0        2.415403   -1.952660    0.825453
     13         17           0       -2.130766   -0.936810   -0.041339
     14          9           0        0.285591    2.669262   -0.128307
     15          1           0        3.224460   -1.686334   -0.706992
 ---------------------------------------------------------------------

 The electronic state is 1-A.
 Alpha  occ. eigenvalues -- -104.60537 -25.92339 -11.16474 -11.10185 -11.09036
 Alpha  occ. eigenvalues --  -11.08441 -10.32994  -7.79622  -7.79562  -7.79561
 Alpha  occ. eigenvalues --   -1.18000  -0.95575  -0.88193  -0.82788  -0.73125
 Alpha  occ. eigenvalues --   -0.66524  -0.51378  -0.49359  -0.47736  -0.43046
 Alpha  occ. eigenvalues --   -0.41758  -0.36592  -0.35829  -0.34788  -0.29847
 Alpha  occ. eigenvalues --   -0.27800  -0.27434  -0.24627  -0.24497  -0.23496
 Alpha virt. eigenvalues --    0.10567   0.12051   0.12828   0.14214   0.14690
 Alpha virt. eigenvalues --    0.14980   0.15301   0.16421   0.16586   0.19392
 Alpha virt. eigenvalues --    0.19912   0.21051   0.21422   0.22952   0.23025

 Mulliken charges:
               1
     1  C   -0.505845
     2  H    0.367962
     3  H    0.460167
     4  C   -0.162209
     5  H    0.351503
     6  H    0.352730
     7  C   -0.480653
     8  H    0.258942
     9  H    0.249861
    10  C   -1.006670
    11  H    0.267319
    12  H    0.264718
    13  Cl  -0.746192
    14  F   -0.938186
    15  H    0.266552
 Sum of Mulliken charges =  -1.00000

 Dipole moment (field-independent basis, Debye):
    X=              3.6911    Y=             -5.1059    Z=              0.7165  Tot=              6.3410
 Quadrupole moment (field-independent basis, Debye-Ang):
   XX=            -64.3381   YY=            -78.9813   ZZ=            -47.9312
   XY=             -9.8561   XZ=             -0.3863   YZ=              1.5781

 Normal termination of Gaussian 09 at Mon Jul 10 01:21:30 2017.
