 Gaussian 09, Revision E.01,
 Gaussian 09:  ES64L-G09RevE.01 30-Nov-2015

 -----------------------------
 # hf/sto-3g geom=connectivity
 -----------------------------

 -------------------
 Title Card Required
 -------------------
 Symbolic Z-matrix:
 Charge =  0 Multiplicity = 1

                         Standard orientation:
 ---------------------------------------------------------------------
 Center     Atomic      Atomic             Coordinates (Angstroms)
 Number     Number       Type             X           Y           Z
 ---------------------------------------------------------------------
      1          6           0        6.742451   -0.688054    0.122376
      2          1           0        6.834103   -1.214240   -0.843115
      3          1           0        6.649723   -1.461155    0.904126
      4          1           0        7.688406   -0.152407    0.297908
      5          6           0        5.546100    0.243021    0.127813
      6          1           0        5.491497    0.783870    1.091925
      7          1           0        5.674693    1.029211   -0.640671
      8          6           0        4.230321   -0.476190   -0.112960
      9          1           0        4.095586   -1.263712    0.655576
     10          1           0        4.278215   -1.018167   -1.078951
     11          6           0        3.023329    0.443264   -0.109688
     12          1           0        3.154177    1.227335   -0.881876
     13          1           0        2.969900    0.987382    0.853286
     14          6           0        1.705734   -0.284709   -0.346058
     15          1           0        1.558862   -1.054024    0.435530
     16          1           0        1.777141   -0.836336   -1.305088
     17          6           0        0.528223    0.631904   -0.377494
     18          1           0        0.545875    1.418924   -1.148988
     19          6           0       -0.509769    0.589826    0.461589
     20          1           0       -0.344445    0.200333    1.479370
     21          6           0       -1.907253    0.997819    0.132528
     22          1           0       -1.943885    1.409103   -0.894019
     23          1           0       -2.224233    1.823129    0.801497
     24          6           0       -2.909467   -0.142233    0.265638
     25          1           0       -2.852309   -0.564840    1.288525
     26          1           0       -2.611527   -0.968269   -0.409000
     27          6           0       -4.338569    0.272258   -0.031176
     28          1           0       -4.630847    1.099360    0.646797
     29          1           0       -4.393415    0.700498   -1.052252
     30          6           0       -5.341430   -0.861328    0.094368
     31          1           0       -5.043302   -1.684599   -0.582652
     32          1           0       -5.281178   -1.286484    1.114570
     33          6           0       -6.764244   -0.432558   -0.205533
     34          1           0       -7.479259   -1.264564   -0.110239
     35          1           0       -7.093011    0.366782    0.480333
     36          1           0       -6.853315   -0.035245   -1.231020
 ---------------------------------------------------------------------

 SCF Done:  E(RHF) =  -462.849449009     A.U. after   11 cycles

 The electronic state is 1-A.
 Alpha  occ. eigenvalues --  -11.04235 -11.04178 -11.04083 -11.04033 -11.03938
 Alpha  occ. eigenvalues --  -11.03822 -11.03636 -11.03587 -11.03397 -11.03304
 Alpha  occ. eigenvalues --  -11.00747 -11.00670  -1.05708  -1.04552  -1.01752
 Alpha  occ. eigenvalues --   -0.98632  -0.94402  -0.89493  -0.84803  -0.79218
 Alpha  occ. eigenvalues --   -0.76308  -0.75054  -0.74779  -0.69460  -0.61882
 Alpha  occ. eigenvalues --   -0.61503  -0.57919  -0.57716  -0.55768  -0.55142
 Alpha  occ. eigenvalues --   -0.53451  -0.53095  -0.52275  -0.51224  -0.48760
 Alpha  occ. eigenvalues --   -0.48139  -0.47038  -0.46349  -0.44909  -0.43645
 Alpha  occ. eigenvalues --   -0.43022  -0.42588  -0.42467  -0.41994  -0.41705
 Alpha  occ. eigenvalues --   -0.41600  -0.39628  -0.26253
 Alpha virt. eigenvalues --    0.29733   0.55964   0.57959   0.57988   0.59104
 Alpha virt. eigenvalues --    0.61785   0.63472   0.65754   0.66389   0.66818
 Alpha virt. eigenvalues --    0.67369   0.67980   0.69142   0.69654   0.70734

 Mulliken charges:
               1
     1  C   -0.166115
     2  H    0.052321
     3  H    0.052390
     4  H    0.054564
     5  C   -0.089232
     6  H    0.048015
     7  H    0.047756
     8  C   -0.090468
     9  H    0.045040
    10  H    0.044607
    11  C   -0.089326
    12  H    0.045497
    13  H    0.047076
    14  C   -0.099136
    15  H    0.052888
    16  H    0.056176
    17  C   -0.059374
    18  H    0.046037
    19  C   -0.059006
    20  H    0.045458
    21  C   -0.099448
    22  H    0.052684
    23  H    0.048912
    24  C   -0.087901
    25  H    0.047528
    26  H    0.048758
    27  C   -0.089730
    28  H    0.046116
    29  H    0.046232
    30  C   -0.089095
    31  H    0.048445
    32  H    0.048165
    33  C   -0.166081
    34  H    0.054939
    35  H    0.052623
    36  H    0.052682
 Sum of Mulliken charges =   0.00000

 Dipole moment (field-independent basis, Debye):
    X=             -0.0926    Y=             -0.0727    Z=             -0.0199  Tot=              0.1194
 Quadrupole moment (field-independent basis, Debye-Ang):
   XX=            -76.3593   YY=            -76.0145   ZZ=            -74.5579
   XY=             -0.0775   XZ=             -0.5344   YZ=             -0.3131

 Normal termination of Gaussian 09 at Mon Dec  4 11:08:00 2017.
