 Gaussian 09, Revision E.01,
 Gaussian 09:  ES64L-G09RevE.01 30-Nov-2015

 -----------------------------
 # hf/sto-3g geom=connectivity
 -----------------------------

 -------------------
 Title Card Required
 -------------------
 Symbolic Z-matrix:
 Charge =  0 Multiplicity = 1

                         Standard orientation:
 ---------------------------------------------------------------------
 Center     Atomic      Atomic             Coordinates (Angstroms)
 Number     Number       Type             X           Y           Z
 ---------------------------------------------------------------------
      1          6           0        6.254045   -1.413940    0.036827
      2          1           0        6.338817   -1.633259   -1.041207
      3          1           0        5.907310   -2.338892    0.528409
      4          1           0        7.267348   -1.200572    0.411331
      5          6           0        5.295545   -0.266853    0.289124
      6          1           0        5.250032   -0.042541    1.372002
      7          1           0        5.678380    0.657549   -0.184287
      8          6           0        3.891311   -0.540787   -0.220385
      9          1           0        3.502227   -1.464949    0.252406
     10          1           0        3.930290   -0.763956   -1.305671
     11          6           0        2.920220    0.598791    0.025744
     12          1           0        3.305203    1.521798   -0.451758
     13          1           0        2.876684    0.826177    1.108629
     14          6           0        1.511823    0.315891   -0.482446
     15          1           0        1.113434   -0.592429    0.007997
     16          1           0        1.570711    0.076049   -1.563251
     17          6           0        0.572654    1.456096   -0.268913
     18          1           0        0.848454    2.408979   -0.749394
     19          6           0       -0.538468    1.417345    0.470794
     20          1           0       -0.436188    1.398066    1.568100
     21          6           0       -1.932059    1.362927   -0.060848
     22          1           0       -1.912977    1.430543   -1.165094
     23          1           0       -2.501062    2.248366    0.287527
     24          6           0       -2.685128    0.108379    0.364435
     25          1           0       -2.681483    0.034118    1.470164
     26          1           0       -2.133650   -0.783964    0.009704
     27          6           0       -4.115087    0.061955   -0.140836
     28          1           0       -4.661755    0.957626    0.217074
     29          1           0       -4.117906    0.142513   -1.246501
     30          6           0       -4.869092   -1.189009    0.275188
     31          1           0       -4.317680   -2.079455   -0.082667
     32          1           0       -4.861556   -1.265682    1.379391
     33          6           0       -6.295495   -1.221638   -0.237157
     34          1           0       -6.828943   -2.133828    0.072524
     35          1           0       -6.872840   -0.358031    0.134727
     36          1           0       -6.324467   -1.179171   -1.339324
 ---------------------------------------------------------------------

 SCF Done:  E(RHF) =  -462.723399514     A.U. after   12 cycles

 The electronic state is 1-A.
 Alpha  occ. eigenvalues --  -11.04332 -11.04240 -11.04210 -11.04107 -11.04008
 Alpha  occ. eigenvalues --  -11.03821 -11.03482 -11.03397 -11.03310 -11.03229
 Alpha  occ. eigenvalues --  -10.99495 -10.99414  -1.05590  -1.04501  -1.01553
 Alpha  occ. eigenvalues --   -0.98535  -0.94252  -0.89365  -0.84801  -0.79140
 Alpha  occ. eigenvalues --   -0.76470  -0.75094  -0.74780  -0.68420  -0.62088
 Alpha  occ. eigenvalues --   -0.61396  -0.58040  -0.57190  -0.56004  -0.55051
 Alpha  occ. eigenvalues --   -0.53420  -0.53103  -0.51708  -0.51207  -0.49617
 Alpha  occ. eigenvalues --   -0.48408  -0.47079  -0.46170  -0.45498  -0.43734
 Alpha  occ. eigenvalues --   -0.42985  -0.42625  -0.42379  -0.41833  -0.41678
 Alpha  occ. eigenvalues --   -0.41492  -0.40209  -0.18147
 Alpha virt. eigenvalues --    0.20886   0.57294   0.57885   0.58076   0.58803
 Alpha virt. eigenvalues --    0.62710   0.63181   0.66222   0.66537   0.67066
 Alpha virt. eigenvalues --    0.67362   0.68503   0.69049   0.69471   0.70740

 Mulliken charges:
               1
     1  C   -0.166137
     2  H    0.052078
     3  H    0.052166
     4  H    0.054249
     5  C   -0.089329
     6  H    0.047641
     7  H    0.047401
     8  C   -0.091083
     9  H    0.044147
    10  H    0.043394
    11  C   -0.089829
    12  H    0.044015
    13  H    0.045633
    14  C   -0.096620
    15  H    0.052614
    16  H    0.060839
    17  C   -0.061720
    18  H    0.046881
    19  C   -0.060817
    20  H    0.045743
    21  C   -0.097654
    22  H    0.052714
    23  H    0.044008
    24  C   -0.086763
    25  H    0.049367
    26  H    0.048831
    27  C   -0.089316
    28  H    0.047352
    29  H    0.047020
    30  C   -0.088990
    31  H    0.048627
    32  H    0.048549
    33  C   -0.166055
    34  H    0.055247
    35  H    0.052902
    36  H    0.052892
 Sum of Mulliken charges =  -0.00000

 Dipole moment (field-independent basis, Debye):
    X=             -0.2223    Y=             -0.1600    Z=             -0.0385  Tot=              0.2765
 Quadrupole moment (field-independent basis, Debye-Ang):
   XX=            -76.3181   YY=            -76.1485   ZZ=            -74.8480
   XY=              0.4151   XZ=             -0.6561   YZ=              0.0890

 Normal termination of Gaussian 09 at Mon Dec  4 11:08:03 2017.
