 Gaussian 09, Revision E.01,
 Gaussian 09:  ES64L-G09RevE.01 30-Nov-2015

 -----------------------------
 # hf/sto-3g geom=connectivity
 -----------------------------

 -------------------
 Title Card Required
 -------------------
 Symbolic Z-matrix:
 Charge =  0 Multiplicity = 1

                         Standard orientation:
 ---------------------------------------------------------------------
 Center     Atomic      Atomic             Coordinates (Angstroms)
 Number     Number       Type             X           Y           Z
 ---------------------------------------------------------------------
      1          6           0        5.816091   -1.782566   -0.033504
      2          1           0        6.001918   -1.770648   -1.121057
      3          1           0        5.301570   -2.731264    0.195963
      4          1           0        6.795653   -1.807997    0.468863
      5          6           0        4.982946   -0.590147    0.393333
      6          1           0        4.835827   -0.604092    1.490225
      7          1           0        5.530781    0.348725    0.184537
      8          6           0        3.627013   -0.535999   -0.288594
      9          1           0        3.073125   -1.473583   -0.080898
     10          1           0        3.768124   -0.519462   -1.388132
     11          6           0        2.781279    0.652383    0.129400
     12          1           0        3.331549    1.590488   -0.083491
     13          1           0        2.636486    0.641110    1.227192
     14          6           0        1.419982    0.698207   -0.553711
     15          1           0        0.856762   -0.226591   -0.326052
     16          1           0        1.578114    0.694748   -1.651032
     17          6           0        0.609682    1.889624   -0.164301
     18          1           0        1.056435    2.873283   -0.382799
     19          6           0       -0.578409    1.854023    0.444330
     20          1           0       -0.621422    2.082146    1.521838
     21          6           0       -1.873836    1.494502   -0.203985
     22          1           0       -1.715847    1.328580   -1.286485
     23          1           0       -2.580280    2.345506   -0.127432
     24          6           0       -2.530469    0.266134    0.413926
     25          1           0       -2.665527    0.429111    1.501749
     26          1           0       -1.839657   -0.595338    0.330952
     27          6           0       -3.866115   -0.085135   -0.214483
     28          1           0       -4.552987    0.780899   -0.128684
     29          1           0       -3.730962   -0.241892   -1.303590
     30          6           0       -4.522842   -1.312129    0.393551
     31          1           0       -3.831894   -2.172437    0.307115
     32          1           0       -4.653593   -1.151266    1.480853
     33          6           0       -5.855600   -1.651057   -0.244468
     34          1           0       -6.319206   -2.542149    0.206738
     35          1           0       -6.570924   -0.817352   -0.141067
     36          1           0       -5.742371   -1.847563   -1.324273
 ---------------------------------------------------------------------

 SCF Done:  E(RHF) =  -462.723187181     A.U. after   12 cycles

 The electronic state is 1-A.
 Alpha  occ. eigenvalues --  -11.04328 -11.04207 -11.04170 -11.04123 -11.04012
 Alpha  occ. eigenvalues --  -11.03836 -11.03482 -11.03403 -11.03334 -11.03238
 Alpha  occ. eigenvalues --  -10.99524 -10.99439  -1.05640  -1.04487  -1.01588
 Alpha  occ. eigenvalues --   -0.98471  -0.94263  -0.89285  -0.84917  -0.79105
 Alpha  occ. eigenvalues --   -0.76739  -0.75160  -0.74804  -0.67799  -0.62297
 Alpha  occ. eigenvalues --   -0.61441  -0.58550  -0.56644  -0.56269  -0.54898
 Alpha  occ. eigenvalues --   -0.53884  -0.52717  -0.51831  -0.50721  -0.50146
 Alpha  occ. eigenvalues --   -0.48158  -0.47219  -0.46136  -0.45580  -0.43809
 Alpha  occ. eigenvalues --   -0.43187  -0.42708  -0.42204  -0.41874  -0.41523
 Alpha  occ. eigenvalues --   -0.41302  -0.40371  -0.18145
 Alpha virt. eigenvalues --    0.20871   0.57512   0.57741   0.58296   0.58484
 Alpha virt. eigenvalues --    0.62740   0.63104   0.66183   0.66547   0.67109
 Alpha virt. eigenvalues --    0.67287   0.68496   0.68968   0.69454   0.70250

 Mulliken charges:
               1
     1  C   -0.166054
     2  H    0.052862
     3  H    0.052854
     4  H    0.055277
     5  C   -0.088999
     6  H    0.048724
     7  H    0.048617
     8  C   -0.089318
     9  H    0.046835
    10  H    0.047240
    11  C   -0.086698
    12  H    0.049567
    13  H    0.049222
    14  C   -0.098099
    15  H    0.051615
    16  H    0.043416
    17  C   -0.060791
    18  H    0.047572
    19  C   -0.061650
    20  H    0.048294
    21  C   -0.097256
    22  H    0.052649
    23  H    0.060614
    24  C   -0.089759
    25  H    0.043861
    26  H    0.044708
    27  C   -0.091104
    28  H    0.043620
    29  H    0.044258
    30  C   -0.089326
    31  H    0.047448
    32  H    0.047349
    33  C   -0.166142
    34  H    0.054226
    35  H    0.052158
    36  H    0.052211
 Sum of Mulliken charges =   0.00000

 Dipole moment (field-independent basis, Debye):
    X=              0.1913    Y=             -0.0951    Z=             -0.0106  Tot=              0.2139
 Quadrupole moment (field-independent basis, Debye-Ang):
   XX=            -75.6801   YY=            -76.3111   ZZ=            -75.2404
   XY=             -0.3938   XZ=             -0.4271   YZ=             -0.3132

 Normal termination of Gaussian 09 at Mon Dec  4 11:09:10 2017.
