 Gaussian 09, Revision E.01,
 Gaussian 09:  ES64L-G09RevE.01 30-Nov-2015

 --------------------------------------------
 # opt freq aug-cc-pvtz geom=connectivity m06
 --------------------------------------------

 --------------
 1chloro-hexane
 --------------
 Symbolic Z-matrix:
 Charge =  0 Multiplicity = 1

 SCF Done:  E(RM06) =  -696.557191029     A.U. after   13 cycles
 SCF Done:  E(RM06) =  -696.565054687     A.U. after   12 cycles
 SCF Done:  E(RM06) =  -696.565980457     A.U. after   11 cycles
 SCF Done:  E(RM06) =  -696.566007771     A.U. after   10 cycles
 SCF Done:  E(RM06) =  -696.566010572     A.U. after    9 cycles
 SCF Done:  E(RM06) =  -696.566010924     A.U. after    8 cycles
 SCF Done:  E(RM06) =  -696.566010950     A.U. after    8 cycles
 Optimization completed.
    -- Stationary point found.
 Normal termination of Gaussian 09 at Thu Jul  6 23:32:52 2017.

 ---------------------------------------------------------------------
 #N Geom=AllCheck Guess=TCheck SCRF=Check GenChk RM06/Aug-CC-pVTZ Freq
 ---------------------------------------------------------------------

 Structure from the checkpoint file:  "20170630_augccpVTZ_ccsdt_chlorohexane.chk"
 --------------
 1chloro-hexane
 --------------
 Charge =  0 Multiplicity = 1

                         Standard orientation:
 ---------------------------------------------------------------------
 Center     Atomic      Atomic             Coordinates (Angstroms)
 Number     Number       Type             X           Y           Z
 ---------------------------------------------------------------------
      1          6           0        1.979150    0.641902    0.000183
      2          1           0        2.008924    1.277023   -0.884012
      3          1           0        2.008505    1.276369    0.884861
      4          6           0        0.774521   -0.258495   -0.000436
      5          1           0        0.809516   -0.912423   -0.876918
      6          1           0        0.809212   -0.913172    0.875499
      7          6           0       -0.513629    0.543494   -0.000305
      8          1           0       -0.535650    1.203932    0.875137
      9          1           0       -0.535624    1.204336   -0.875446
     10          6           0       -1.750428   -0.331373   -0.000504
     11          1           0       -1.728942   -0.992754   -0.875360
     12          1           0       -1.728644   -0.993484    0.873791
     13         17           0        3.511086   -0.303751    0.000203
     14          6           0       -3.042333    0.460768    0.000084
     15          1           0       -3.057863    1.120923    0.874084
     16          1           0       -3.058533    1.121167   -0.873723
     17          6           0       -4.268199   -0.427577    0.000469
     18          1           0       -4.280016   -1.075242    0.880076
     19          1           0       -5.193012    0.149650    0.001021
     20          1           0       -4.280831   -1.074871   -0.879399
 ---------------------------------------------------------------------

 SCF Done:  E(RM06) =  -696.566010950     A.U. after    2 cycles

 The electronic state is 1-A.
 Alpha  occ. eigenvalues -- -101.72437 -10.29851 -10.24830 -10.24521 -10.23969
 Alpha  occ. eigenvalues --  -10.23844 -10.22937  -9.57358  -7.28576  -7.27656
 Alpha  occ. eigenvalues --   -7.27651  -0.87454  -0.82807  -0.78388  -0.72051
 Alpha  occ. eigenvalues --   -0.64997  -0.60756  -0.59579  -0.51071  -0.47962
 Alpha  occ. eigenvalues --   -0.45857  -0.45307  -0.43381  -0.41858  -0.40508
 Alpha  occ. eigenvalues --   -0.38459  -0.37196  -0.35205  -0.35183  -0.34391
 Alpha  occ. eigenvalues --   -0.33960  -0.30385  -0.30307
 Alpha virt. eigenvalues --   -0.04203  -0.03261  -0.03051  -0.02838  -0.01427
 Alpha virt. eigenvalues --   -0.01083  -0.01016   0.00057   0.00264   0.00410
 Alpha virt. eigenvalues --    0.01196   0.01392   0.02202   0.02937   0.02997

 Mulliken charges:
               1
     1  C   -1.102900
     2  H    0.560718
     3  H    0.560688
     4  C   -1.504435
     5  H    0.813680
     6  H    0.813679
     7  C   -1.455314
     8  H    0.888049
     9  H    0.888148
    10  C   -1.189306
    11  H    0.864390
    12  H    0.864413
    13  Cl  -0.490589
    14  C   -1.380322
    15  H    0.804578
    16  H    0.804450
    17  C   -2.875653
    18  H    0.724016
    19  H    0.687663
    20  H    0.724048
 Sum of Mulliken charges =   0.00000

 Dipole moment (field-independent basis, Debye):
    X=             -2.1546    Y=              0.9126    Z=             -0.0002  Tot=              2.3399
 Quadrupole moment (field-independent basis, Debye-Ang):
   XX=            -62.3572   YY=            -53.2602   ZZ=            -52.4818
   XY=              1.7425   XZ=             -0.0003   YZ=             -0.0001

  Exact polarizability: 118.157  -1.937  83.616   0.071  -0.074  76.727
 Approx polarizability: 127.872  -6.233 120.876   0.001   0.000 115.339

                      1                      2                      3
                      A                      A                      A
 Frequencies --     49.8149                66.7481                92.2254
 Red. masses --      2.0818                 2.1578                 4.1133
 Frc consts  --      0.0030                 0.0057                 0.0206
 IR Inten    --      1.0069                 0.0344                 0.8897

                      4                      5                      6
                      A                      A                      A
 Frequencies --    138.7276               144.7064               215.3002
 Red. masses --      1.7937                 2.2558                 1.2494
 Frc consts  --      0.0203                 0.0278                 0.0341
 IR Inten    --      0.1773                 0.4558                 0.0137

                      7                      8                      9
                      A                      A                      A
 Frequencies --    233.5204               269.2653               424.9218
 Red. masses --      4.0082                 4.5065                 3.0061
 Frc consts  --      0.1288                 0.1925                 0.3198
 IR Inten    --      1.5671                 0.5627                 1.4291

                     10                     11                     12
                      A                      A                      A
 Frequencies --    464.5962               699.5319               721.1351
 Red. masses --      3.3422                 1.0664                 1.0941
 Frc consts  --      0.4250                 0.3075                 0.3352
 IR Inten    --      3.2300                 2.0051                 0.2183

                     13                     14                     15
                      A                      A                      A
 Frequencies --    753.2343               772.7053               871.4147
 Red. masses --      5.9494                 1.1648                 1.2182
 Frc consts  --      1.9888                 0.4097                 0.5450
 IR Inten    --     52.4507                 0.8473                 0.0251

                     16                     17                     18
                      A                      A                      A
 Frequencies --    902.7730               975.1188              1028.8158
 Red. masses --      1.7352                 1.1745                 3.5553
 Frc consts  --      0.8332                 0.6580                 2.2172
 IR Inten    --      0.1831                 0.1736                 0.9506

                     19                     20                     21
                      A                      A                      A
 Frequencies --   1054.1556              1073.4768              1081.8601
 Red. masses --      3.0703                 2.4316                 1.9284
 Frc consts  --      2.0102                 1.6509                 1.3298
 IR Inten    --      3.3953                 2.6127                 0.1604

                     22                     23                     24
                      A                      A                      A
 Frequencies --   1088.7845              1138.8987              1206.8208
 Red. masses --      1.1576                 2.6743                 1.6953
 Frc consts  --      0.8086                 2.0438                 1.4547
 IR Inten    --      0.4100                 0.8056                 0.1549

                     25                     26                     27
                      A                      A                      A
 Frequencies --   1226.8715              1257.8933              1281.8209
 Red. masses --      1.2602                 1.3362                 1.2591
 Frc consts  --      1.1176                 1.2457                 1.2189
 IR Inten    --      7.4359                 0.1950                 9.0098

                     28                     29                     30
                      A                      A                      A
 Frequencies --   1296.2844              1315.3315              1321.2703
 Red. masses --      1.1535                 1.0719                 1.0986
 Frc consts  --      1.1420                 1.0926                 1.1300
 IR Inten    --      0.0012                 0.0613                 0.5194

                     31                     32                     33
                      A                      A                      A
 Frequencies --   1332.1067              1375.2882              1396.6347
 Red. masses --      1.3766                 1.5541                 1.6625
 Frc consts  --      1.4393                 1.7319                 1.9106
 IR Inten    --     17.3512                 2.5116                 1.8912

                     34                     35                     36
                      A                      A                      A
 Frequencies --   1399.0337              1453.3868              1453.7888
 Red. masses --      1.3859                 1.0878                 1.0817
 Frc consts  --      1.5982                 1.3538                 1.3469
 IR Inten    --      1.3060                 0.2556                 0.3086

                     37                     38                     39
                      A                      A                      A
 Frequencies --   1457.1372              1465.7179              1474.9022
 Red. masses --      1.0888                 1.0722                 1.0367
 Frc consts  --      1.3621                 1.3572                 1.3287
 IR Inten    --      1.2723                 1.0984                 7.5805

                     40                     41                     42
                      A                      A                      A
 Frequencies --   1477.7674              1487.4146              2979.6322
 Red. masses --      1.0920                 1.0968                 1.0589
 Frc consts  --      1.4050                 1.4297                 5.5388
 IR Inten    --      1.2317                12.3095                 0.1784

                     43                     44                     45
                      A                      A                      A
 Frequencies --   2985.6701              2999.4062              3007.4516
 Red. masses --      1.0598                 1.0604                 1.0798
 Frc consts  --      5.5664                 5.6205                 5.7544
 IR Inten    --     11.5777                41.3600                14.8736

                     46                     47                     48
                      A                      A                      A
 Frequencies --   3008.0402              3011.8582              3019.7238
 Red. masses --      1.0553                 1.0594                 1.1009
 Frc consts  --      5.6261                 5.6623                 5.9148
 IR Inten    --     33.7267                13.7287                 3.1050

                     49                     50                     51
                      A                      A                      A
 Frequencies --   3037.6616              3052.9258              3054.7901
 Red. masses --      1.1033                 1.0581                 1.1034
 Frc consts  --      5.9983                 5.8106                 6.0669
 IR Inten    --     34.3787                20.3085                33.7260

                     52                     53                     54
                      A                      A                      A
 Frequencies --   3077.0911              3092.8337              3109.3192
 Red. masses --      1.1017                 1.1017                 1.1088
 Frc consts  --      6.1458                 6.2091                 6.3158
 IR Inten    --     47.6842                31.2657                12.5282

 - Thermochemistry -
 -------------------
 Temperature   298.150 Kelvin.  Pressure   1.00000 Atm.
 Atom     1 has atomic number  6 and mass  12.00000

 Molecular mass:   120.07058 amu.
 Principal axes and moments of inertia in atomic units:
                           1         2         3
     Eigenvalues --   151.959823425.587313511.05705
           X            0.99996   0.00876  -0.00001
           Y           -0.00876   0.99996   0.00003
           Z            0.00001  -0.00003   1.00000
 This molecule is an asymmetric top.
 Rotational symmetry number  1.
 Rotational temperatures (Kelvin)      0.56998     0.02528     0.02467
 Rotational constants (GHZ):          11.87644     0.52684     0.51402
 Zero-point vibrational energy     468802.2 (Joules/Mol)
                                  112.04641 (Kcal/Mol)
 Warning -- explicit consideration of  10 degrees of freedom as
           vibrations may cause significant error
 Vibrational temperatures:     71.67    96.04   132.69   199.60   208.20
          (Kelvin)            309.77   335.98   387.41   611.37   668.45
                             1006.47  1037.55  1083.73  1111.75  1253.77
                             1298.89  1402.98  1480.23  1516.69  1544.49
                             1556.55  1566.52  1638.62  1736.34  1765.19
                             1809.83  1844.25  1865.06  1892.47  1901.01
                             1916.60  1978.73  2009.44  2012.89  2091.10
                             2091.68  2096.49  2108.84  2122.05  2126.18
                             2140.06  4287.02  4295.71  4315.47  4327.05
                             4327.89  4333.39  4344.70  4370.51  4392.47
                             4395.16  4427.24  4449.89  4473.61

 Zero-point correction=                           0.178557 (Hartree/Particle)
 Thermal correction to Energy=                    0.188013
 Thermal correction to Enthalpy=                  0.188957
 Thermal correction to Gibbs Free Energy=         0.142939
 Sum of electronic and zero-point Energies=           -696.387454
 Sum of electronic and thermal Energies=              -696.377998
 Sum of electronic and thermal Enthalpies=            -696.377054
 Sum of electronic and thermal Free Energies=         -696.423072

                     E (Thermal)             CV                S
                      KCal/Mol        Cal/Mol-Kelvin    Cal/Mol-Kelvin
 Total                  117.980             32.260             96.854
 Electronic               0.000              0.000              0.000
 Translational            0.889              2.981             40.263
 Rotational               0.889              2.981             28.993
 Vibrational            116.202             26.298             27.597
 Vibration     1          0.595              1.978              4.825
 Vibration     2          0.598              1.970              4.247
 Vibration     3          0.602              1.955              3.612
 Vibration     4          0.614              1.915              2.821
 Vibration     5          0.616              1.908              2.741
 Vibration     6          0.645              1.818              1.998
 Vibration     7          0.654              1.790              1.852
 Vibration     8          0.674              1.730              1.601
 Vibration     9          0.787              1.416              0.875
 Vibration    10          0.822              1.329              0.753

 Normal termination of Gaussian 09 at Fri Jul  7 01:24:54 2017.
