 Gaussian 09, Revision D.01,
 Gaussian 09:  ES64L-G09RevD.01 24-Apr-2013

 -------------------------------------------------------------
 # Opt=(Z-mat,maxcycle=200) m06/def2svp Integral=SuperFineGrid
 -------------------------------------------------------------

 ------
 C12H24
 ------
 Symbolic Z-matrix:
 Charge =  0 Multiplicity = 1

 SCF Done:  E(RM06) =  -470.905757509     A.U. after   13 cycles
 SCF Done:  E(RM06) =  -470.930887221     A.U. after   12 cycles
 SCF Done:  E(RM06) =  -470.941664657     A.U. after   12 cycles
 SCF Done:  E(RM06) =  -470.942238009     A.U. after   10 cycles
 SCF Done:  E(RM06) =  -470.942342084     A.U. after   10 cycles
 SCF Done:  E(RM06) =  -470.942361844     A.U. after    9 cycles
 SCF Done:  E(RM06) =  -470.942363961     A.U. after    8 cycles
 Optimization completed.
    -- Stationary point found.

                         Standard orientation:
 ---------------------------------------------------------------------
 Center     Atomic      Atomic             Coordinates (Angstroms)
 Number     Number       Type             X           Y           Z
 ---------------------------------------------------------------------
      1          6           0        6.757839   -0.528228    0.017656
      2          6           0        5.528231    0.338988   -0.166570
      3          1           0        7.691422    0.029566   -0.155144
      4          1           0        6.750066   -1.384181   -0.678596
      5          1           0        6.804056   -0.943173    1.038994
      6          6           0        4.228821   -0.412623    0.063715
      7          1           0        5.519840    0.772489   -1.185029
      8          1           0        5.570779    1.206921    0.519112
      9          6           0        2.988018    0.442238   -0.115732
     10          1           0        4.231687   -0.848584    1.083027
     11          1           0        4.180033   -1.281403   -0.623256
     12          6           0        1.689686   -0.310459    0.109747
     13          1           0        2.987060    0.880406   -1.133913
     14          1           0        3.035273    1.308962    0.573658
     15          6           0        0.449196    0.545514   -0.067708
     16          1           0        1.690882   -0.750304    1.127160
     17          1           0        1.641295   -1.175948   -0.581035
     18          6           0       -0.848898   -0.208981    0.153247
     19          1           0        0.449355    0.987829   -1.084005
     20          1           0        0.495548    1.409258    0.625370
     21          6           0       -2.088827    0.648849   -0.021612
     22          1           0       -0.848420   -0.653242    1.168644
     23          1           0       -0.896712   -1.070982   -0.541649
     24          6           0       -3.383081   -0.114344    0.194618
     25          1           0       -2.087723    1.095435   -1.035646
     26          1           0       -2.044012    1.508219    0.676572
     27          6           0       -4.619397    0.756586    0.009916
     28          1           0       -3.387867   -0.557214    1.209754
     29          1           0       -3.438751   -0.972157   -0.502337
     30          6           0       -5.850996   -0.058144    0.292519
     31          1           0       -4.618276    1.169106   -1.018138
     32          1           0       -4.544302    1.629314    0.686691
     33          6           0       -6.500115   -0.964737   -0.459432
     34          1           0       -6.623437   -1.999043   -0.118876
     35          1           0       -6.937239   -0.728235   -1.440773
     36          1           0       -5.723426   -0.440991    1.327230
 ---------------------------------------------------------------------

 The electronic state is 1-A.
 Alpha  occ. eigenvalues --  -10.25423 -10.25030 -10.24662 -10.24648 -10.24367
 Alpha  occ. eigenvalues --  -10.24223 -10.24113 -10.24092 -10.24047 -10.23994
 Alpha  occ. eigenvalues --  -10.23943 -10.23621  -0.82594  -0.81353  -0.79276
 Alpha  occ. eigenvalues --   -0.76496  -0.73260  -0.69606  -0.65375  -0.60995
 Alpha  occ. eigenvalues --   -0.58349  -0.57703  -0.57420  -0.54910  -0.49631
 Alpha  occ. eigenvalues --   -0.48427  -0.46717  -0.45202  -0.44975  -0.44205
 Alpha  occ. eigenvalues --   -0.43141  -0.42710  -0.41127  -0.40408  -0.39504
 Alpha  occ. eigenvalues --   -0.37708  -0.37325  -0.35970  -0.35387  -0.34721
 Alpha  occ. eigenvalues --   -0.34099  -0.33507  -0.33438  -0.32939  -0.32494
 Alpha  occ. eigenvalues --   -0.32314  -0.31812  -0.24910
 Alpha virt. eigenvalues --   -0.01360   0.06318   0.06894   0.07526   0.07963
 Alpha virt. eigenvalues --    0.08377   0.08872   0.09470   0.09914   0.10894
 Alpha virt. eigenvalues --    0.11174   0.12446   0.13047   0.13836   0.14745

 Mulliken charges:
               1
     1  C   -0.062136
     2  C   -0.077805
     3  H    0.039347
     4  H    0.035096
     5  H    0.035162
     6  C   -0.062610
     7  H    0.028230
     8  H    0.028206
     9  C   -0.039969
    10  H    0.020460
    11  H    0.020424
    12  C   -0.040009
    13  H    0.019521
    14  H    0.019503
    15  C   -0.040000
    16  H    0.019875
    17  H    0.019956
    18  C   -0.040216
    19  H    0.020128
    20  H    0.019912
    21  C   -0.036074
    22  H    0.020839
    23  H    0.021615
    24  C   -0.068256
    25  H    0.022528
    26  H    0.021431
    27  C    0.004785
    28  H    0.021216
    29  H    0.026871
    30  C   -0.050003
    31  H    0.029106
    32  H    0.030092
    33  C   -0.131696
    34  H    0.058883
    35  H    0.051149
    36  H    0.014440
 Sum of Mulliken charges =   0.00000

 Dipole moment (field-independent basis, Debye):
    X=              0.7954    Y=             -0.0888    Z=             -0.0468  Tot=              0.8017
 Quadrupole moment (field-independent basis, Debye-Ang):
   XX=            -88.6987   YY=            -80.2576   ZZ=            -79.0583
   XY=              1.5471   XZ=              0.9526   YZ=              0.2646

 Normal termination of Gaussian 09 at Tue Oct 17 17:10:56 2017.
