 Gaussian 09, Revision D.01,
 Gaussian 09:  ES64L-G09RevD.01 24-Apr-2013

 -------------------------------------------------------------
 # Opt=(Z-mat,maxcycle=200) m06/def2svp Integral=SuperFineGrid
 -------------------------------------------------------------

 ------
 C12H24
 ------
 Symbolic Z-matrix:
 Charge =  0 Multiplicity = 1

 SCF Done:  E(RM06) =  -470.934864045     A.U. after   12 cycles
 SCF Done:  E(RM06) =  -470.952329901     A.U. after   12 cycles
 SCF Done:  E(RM06) =  -470.956619480     A.U. after   12 cycles
 SCF Done:  E(RM06) =  -470.957007171     A.U. after   10 cycles
 SCF Done:  E(RM06) =  -470.957062953     A.U. after   10 cycles
 SCF Done:  E(RM06) =  -470.957071450     A.U. after    8 cycles
 SCF Done:  E(RM06) =  -470.957072532     A.U. after    8 cycles
 Optimization completed.
    -- Stationary point found.

                         Standard orientation:
 ---------------------------------------------------------------------
 Center     Atomic      Atomic             Coordinates (Angstroms)
 Number     Number       Type             X           Y           Z
 ---------------------------------------------------------------------
      1          6           0       -6.848957   -0.343063    0.049926
      2          6           0       -5.581860    0.483302   -0.047765
      3          1           0       -7.757045    0.275655   -0.021839
      4          1           0       -6.895687   -0.890004    1.007072
      5          1           0       -6.897002   -1.096192   -0.755040
      6          6           0       -4.316984   -0.351738    0.047827
      7          1           0       -5.568921    1.252256    0.748359
      8          1           0       -5.571118    1.048798   -0.999276
      9          6           0       -3.039210    0.461018   -0.048275
     10          1           0       -4.324117   -1.122479   -0.749038
     11          1           0       -4.321991   -0.919047    1.000301
     12          6           0       -1.775585   -0.374058    0.045786
     13          1           0       -3.031677    1.230742    0.749330
     14          1           0       -3.034925    1.028766   -1.000310
     15          6           0       -0.497942    0.439194   -0.049732
     16          1           0       -1.782527   -1.143401   -0.752142
     17          1           0       -1.779776   -0.942254    0.997487
     18          6           0        0.765466   -0.396364    0.042615
     19          1           0       -0.490133    1.207678    0.749005
     20          1           0       -0.494211    1.008368   -1.000882
     21          6           0        2.043108    0.416927   -0.051533
     22          1           0        0.758274   -1.164228   -0.756698
     23          1           0        0.761454   -0.966167    0.993251
     24          6           0        3.306300   -0.418935    0.037765
     25          1           0        2.051265    1.183404    0.749115
     26          1           0        2.046257    0.988692   -1.001406
     27          6           0        4.581087    0.403065   -0.060776
     28          1           0        3.301079   -1.183073   -0.765087
     29          1           0        3.306855   -0.990522    0.985691
     30          6           0        5.856783   -0.382093   -0.126314
     31          1           0        4.614802    1.155518    0.751944
     32          1           0        4.562568    0.986076   -1.002172
     33          6           0        7.087814    0.019951    0.215690
     34          1           0        7.283149    0.570635    1.146330
     35          1           0        7.956322   -0.183428   -0.419643
     36          1           0        5.826987   -1.079034   -0.985628
 ---------------------------------------------------------------------

 The electronic state is 1-A.
 Alpha  occ. eigenvalues --  -10.25190 -10.25017 -10.24275 -10.24272 -10.24196
 Alpha  occ. eigenvalues --  -10.24079 -10.24057 -10.24020 -10.23975 -10.23941
 Alpha  occ. eigenvalues --  -10.23900 -10.23592  -0.82387  -0.81190  -0.79203
 Alpha  occ. eigenvalues --   -0.76565  -0.73352  -0.69554  -0.65256  -0.60917
 Alpha  occ. eigenvalues --   -0.58228  -0.57639  -0.57344  -0.54926  -0.49499
 Alpha  occ. eigenvalues --   -0.48302  -0.46773  -0.45285  -0.45052  -0.44014
 Alpha  occ. eigenvalues --   -0.43368  -0.42527  -0.40867  -0.40551  -0.39278
 Alpha  occ. eigenvalues --   -0.37981  -0.36863  -0.35937  -0.35509  -0.34513
 Alpha  occ. eigenvalues --   -0.34109  -0.33709  -0.33373  -0.32890  -0.32395
 Alpha  occ. eigenvalues --   -0.32266  -0.31802  -0.25397
 Alpha virt. eigenvalues --   -0.00288   0.06407   0.07022   0.07700   0.08083
 Alpha virt. eigenvalues --    0.08429   0.08909   0.09430   0.09919   0.10729
 Alpha virt. eigenvalues --    0.11101   0.12424   0.13193   0.13497   0.14731

 Mulliken charges:
               1
     1  C   -0.062116
     2  C   -0.077744
     3  H    0.039232
     4  H    0.035129
     5  H    0.035064
     6  C   -0.062614
     7  H    0.028161
     8  H    0.028101
     9  C   -0.039827
    10  H    0.020336
    11  H    0.020453
    12  C   -0.039954
    13  H    0.019392
    14  H    0.019275
    15  C   -0.040628
    16  H    0.019653
    17  H    0.019877
    18  C   -0.038534
    19  H    0.019726
    20  H    0.019489
    21  C   -0.044499
    22  H    0.019961
    23  H    0.020802
    24  C   -0.061901
    25  H    0.021312
    26  H    0.018736
    27  C   -0.008397
    28  H    0.022388
    29  H    0.030732
    30  C   -0.072063
    31  H    0.026442
    32  H    0.050852
    33  C   -0.111167
    34  H    0.047113
    35  H    0.052784
    36  H    0.024433
 Sum of Mulliken charges =   0.00000

 Dipole moment (field-independent basis, Debye):
    X=             -0.4063    Y=              0.3197    Z=             -0.2875  Tot=              0.5916
 Quadrupole moment (field-independent basis, Debye-Ang):
   XX=            -83.6321   YY=            -81.6561   ZZ=            -79.0316
   XY=              1.6875   XZ=             -1.7241   YZ=              1.0311

 Normal termination of Gaussian 09 at Tue Oct 17 17:08:33 2017.
