 Gaussian 09, Revision D.01,
 Gaussian 09:  ES64L-G09RevD.01 24-Apr-2013

 --------------------------------------------
 # opt=qst2 aug-cc-pvtz geom=connectivity m06
 --------------------------------------------

 -------------------
 Title Card Required
 -------------------
 Symbolic Z-matrix:
 Charge = -1 Multiplicity = 1

 -------------------
 Title Card Required
 -------------------
 Symbolic Z-matrix:
 Charge = -1 Multiplicity = 1

 SCF Done:  E(RM06) =  -796.363599140     A.U. after   19 cycles
 SCF Done:  E(RM06) =  -796.363825953     A.U. after   14 cycles
 SCF Done:  E(RM06) =  -796.374264687     A.U. after   14 cycles
 SCF Done:  E(RM06) =  -796.383314760     A.U. after   14 cycles
 SCF Done:  E(RM06) =  -796.391877176     A.U. after   13 cycles
 SCF Done:  E(RM06) =  -796.397929438     A.U. after   13 cycles
 SCF Done:  E(RM06) =  -796.405911613     A.U. after   13 cycles
 SCF Done:  E(RM06) =  -796.412031161     A.U. after  110 cycles
 SCF Done:  E(RM06) =  -796.419254706     A.U. after   16 cycles
 SCF Done:  E(RM06) =  -796.424900069     A.U. after   12 cycles
 SCF Done:  E(RM06) =  -796.441986896     A.U. after   11 cycles
 SCF Done:  E(RM06) =  -796.441991780     A.U. after   11 cycles
 SCF Done:  E(RM06) =  -796.441998810     A.U. after   11 cycles
 SCF Done:  E(RM06) =  -796.442013739     A.U. after   11 cycles
 SCF Done:  E(RM06) =  -796.442020004     A.U. after   10 cycles
 SCF Done:  E(RM06) =  -796.442023441     A.U. after   10 cycles
 SCF Done:  E(RM06) =  -796.442026741     A.U. after   10 cycles
 SCF Done:  E(RM06) =  -796.442030355     A.U. after   11 cycles
 SCF Done:  E(RM06) =  -796.442031020     A.U. after    9 cycles
 SCF Done:  E(RM06) =  -796.442031236     A.U. after    9 cycles
 Optimization completed.
    -- Stationary point found.

                         Standard orientation:
 ---------------------------------------------------------------------
 Center     Atomic      Atomic             Coordinates (Angstroms)
 Number     Number       Type             X           Y           Z
 ---------------------------------------------------------------------
      1          6           0       -1.989315    0.501030    0.009070
      2          1           0       -2.858695    0.785004    0.571171
      3          1           0       -2.047325    0.609094   -1.057327
      4          6           0       -0.664671    0.416578    0.685920
      5          1           0       -0.504830    1.390198    1.155888
      6          1           0       -0.697177   -0.349199    1.467014
      7          6           0        0.463111    0.128619   -0.279910
      8          1           0        0.252547   -0.808879   -0.809211
      9          1           0        0.480234    0.927134   -1.030321
     10          6           0        1.812644    0.036884    0.399448
     11          1           0        2.009910    0.967931    0.947215
     12          1           0        1.788214   -0.757527    1.157622
     13         17           0       -2.549003   -1.611596   -0.075185
     14          9           0       -1.776801    2.567443   -0.219165
     15          6           0        2.954016   -0.227911   -0.561855
     16          1           0        2.749185   -1.152263   -1.113522
     17          1           0        2.980111    0.568909   -1.313184
     18          6           0        4.297070   -0.327599    0.131789
     19          1           0        4.295013   -1.135729    0.868042
     20          1           0        5.113552   -0.516909   -0.568147
     21          1           0        4.526394    0.596779    0.668606
 ---------------------------------------------------------------------

 The electronic state is 1-A.
 Alpha  occ. eigenvalues -- -101.52009 -24.44609 -10.15178 -10.14158 -10.13666
 Alpha  occ. eigenvalues --  -10.12255 -10.10252 -10.09493  -9.36925  -7.07822
 Alpha  occ. eigenvalues --   -7.07389  -7.07385  -0.85612  -0.71355  -0.67150
 Alpha  occ. eigenvalues --   -0.62798  -0.59052  -0.52729  -0.48255  -0.45168
 Alpha  occ. eigenvalues --   -0.38430  -0.34945  -0.33645  -0.32777  -0.29637
 Alpha  occ. eigenvalues --   -0.28763  -0.28547  -0.24981  -0.24441  -0.22328
 Alpha  occ. eigenvalues --   -0.21664  -0.21228  -0.17167  -0.12832  -0.12707
 Alpha  occ. eigenvalues --   -0.11083  -0.10999  -0.10081
 Alpha virt. eigenvalues --    0.03222   0.05101   0.05360   0.06313   0.07614
 Alpha virt. eigenvalues --    0.08062   0.08222   0.08609   0.09367   0.09833
 Alpha virt. eigenvalues --    0.10175   0.10774   0.10843   0.11831   0.12376

 Mulliken charges:
               1
     1  C   -1.801847
     2  H    0.920865
     3  H    0.992028
     4  C   -1.700037
     5  H    0.887000
     6  H    1.071596
     7  C   -1.425420
     8  H    0.952906
     9  H    0.847601
    10  C   -1.502547
    11  H    0.902187
    12  H    0.861772
    13  Cl  -0.747971
    14  F   -0.742717
    15  C   -1.362859
    16  H    0.837869
    17  H    0.817021
    18  C   -3.031519
    19  H    0.748554
    20  H    0.722126
    21  H    0.753392
 Sum of Mulliken charges =  -1.00000

 Dipole moment (field-independent basis, Debye):
    X=              9.0913    Y=             -3.1180    Z=              0.8658  Tot=              9.6500
 Quadrupole moment (field-independent basis, Debye-Ang):
   XX=            -90.3245   YY=            -93.2998   ZZ=            -62.7577
   XY=              2.6182   XZ=             -2.4160   YZ=              1.7968

 Normal termination of Gaussian 09 at Tue Jul 11 07:32:42 2017.
