 Gaussian 09, Revision D.01,
 Gaussian 09:  ES64L-G09RevD.01 24-Apr-2013

 --------------------------------------------
 # opt=qst2 aug-cc-pvtz geom=connectivity m06
 --------------------------------------------

 ----------------------------------
 1-chloro-1-flouro-pentane reactant
 ----------------------------------
 Symbolic Z-matrix:
 Charge = -1 Multiplicity = 1

 -------------------
 Title Card Required
 -------------------
 Symbolic Z-matrix:
 Charge = -1 Multiplicity = 1

 SCF Done:  E(RM06) =  -757.094616712     A.U. after   16 cycles
 SCF Done:  E(RM06) =  -757.094617449     A.U. after   13 cycles
 SCF Done:  E(RM06) =  -757.110734332     A.U. after   13 cycles
 SCF Done:  E(RM06) =  -757.121946622     A.U. after   13 cycles
 SCF Done:  E(RM06) =  -757.128058677     A.U. after   13 cycles
 SCF Done:  E(RM06) =  -757.135246369     A.U. after   13 cycles
 SCF Done:  E(RM06) =  -757.140314019     A.U. after   13 cycles
 SCF Done:  E(RM06) =  -757.142175242     A.U. after   13 cycles
 SCF Done:  E(RM06) =  -757.142342948     A.U. after   12 cycles
 SCF Done:  E(RM06) =  -757.143214466     A.U. after   12 cycles
 SCF Done:  E(RM06) =  -757.147424509     A.U. after   10 cycles
 SCF Done:  E(RM06) =  -757.147424258     A.U. after    9 cycles
 SCF Done:  E(RM06) =  -757.147424304     A.U. after    9 cycles
 SCF Done:  E(RM06) =  -757.147424255     A.U. after    9 cycles
 SCF Done:  E(RM06) =  -757.147424768     A.U. after    9 cycles
 SCF Done:  E(RM06) =  -757.147426609     A.U. after   10 cycles
 SCF Done:  E(RM06) =  -757.147860966     A.U. after   13 cycles
 SCF Done:  E(RM06) =  -757.147433261     A.U. after   14 cycles
 SCF Done:  E(RM06) =  -757.147426777     A.U. after   11 cycles
 SCF Done:  E(RM06) =  -757.147426797     A.U. after   10 cycles
 Optimization completed.
    -- Stationary point found.

                         Standard orientation:
 ---------------------------------------------------------------------
 Center     Atomic      Atomic             Coordinates (Angstroms)
 Number     Number       Type             X           Y           Z
 ---------------------------------------------------------------------
      1          6           0       -1.405538    0.588809   -0.018894
      2          1           0       -2.263819    0.963772    0.505782
      3          1           0       -1.412991    0.683483   -1.088141
      4          6           0       -0.120569    0.388138    0.707755
      5          1           0        0.109693    1.344936    1.182988
      6          1           0       -0.250815   -0.368183    1.488147
      7          6           0        1.011649   -0.003885   -0.214828
      8          1           0        0.740240   -0.923391   -0.748232
      9          1           0        1.125212    0.784603   -0.968081
     10          6           0        2.324052   -0.207424    0.512949
     11          1           0        2.577572    0.708816    1.058556
     12          1           0        2.197509   -0.986412    1.274300
     13         17           0       -2.165382   -1.462130   -0.100116
     14          9           0       -0.983814    2.619988   -0.264844
     15          6           0        3.457315   -0.581423   -0.420155
     16          1           0        4.401400   -0.732480    0.108379
     17          1           0        3.225423   -1.503331   -0.960115
     18          1           0        3.614940    0.199211   -1.168976
 ---------------------------------------------------------------------

 The electronic state is 1-A.
 Alpha  occ. eigenvalues -- -101.51932 -24.44585 -10.15133 -10.12790 -10.12226
 Alpha  occ. eigenvalues --  -10.10122 -10.09420  -9.36849  -7.07746  -7.07313
 Alpha  occ. eigenvalues --   -7.07310  -0.85587  -0.69840  -0.65303  -0.60985
 Alpha  occ. eigenvalues --   -0.55370  -0.48335  -0.45172  -0.36723  -0.34086
 Alpha  occ. eigenvalues --   -0.31161  -0.30811  -0.29864  -0.25655  -0.25326
 Alpha  occ. eigenvalues --   -0.22166  -0.21519  -0.21329  -0.17097  -0.12766
 Alpha  occ. eigenvalues --   -0.12633  -0.11052  -0.10974  -0.10042
 Alpha virt. eigenvalues --    0.04038   0.05914   0.06299   0.07159   0.08301
 Alpha virt. eigenvalues --    0.08628   0.08785   0.09532   0.10177   0.11066
 Alpha virt. eigenvalues --    0.11227   0.11353   0.12103   0.13259   0.13798

 Mulliken charges:
               1
     1  C   -1.739437
     2  H    0.896778
     3  H    0.980140
     4  C   -1.647758
     5  H    0.900867
     6  H    1.066927
     7  C   -1.257691
     8  H    0.960969
     9  H    0.845432
    10  C   -1.397537
    11  H    0.819372
    12  H    0.805495
    13  Cl  -0.746875
    14  F   -0.743744
    15  C   -2.960281
    16  H    0.732928
    17  H    0.749203
    18  H    0.735214
 Sum of Mulliken charges =  -1.00000

 Dipole moment (field-independent basis, Debye):
    X=              6.4182    Y=             -3.4940    Z=              1.1386  Tot=              7.3957
 Quadrupole moment (field-independent basis, Debye-Ang):
   XX=            -73.0045   YY=            -86.2451   ZZ=            -56.0494
   XY=             -1.0479   XZ=             -1.3473   YZ=              2.1238

 Normal termination of Gaussian 09 at Tue Jul 11 00:50:52 2017.
