 Gaussian 09, Revision E.01,
 Gaussian 09:  ES64L-G09RevE.01 30-Nov-2015

 --------------------------------------------
 # opt freq aug-cc-pvtz geom=connectivity m06
 --------------------------------------------

 ---------------
 1chloro-pentane
 ---------------
 Symbolic Z-matrix:
 Charge =  0 Multiplicity = 1

 SCF Done:  E(RM06) =  -657.264380100     A.U. after   13 cycles
 SCF Done:  E(RM06) =  -657.270806994     A.U. after   12 cycles
 SCF Done:  E(RM06) =  -657.271524826     A.U. after   11 cycles
 SCF Done:  E(RM06) =  -657.271546687     A.U. after    9 cycles
 SCF Done:  E(RM06) =  -657.271549100     A.U. after    9 cycles
 Optimization completed.
    -- Stationary point found.
 Normal termination of Gaussian 09 at Fri Jul  7 00:37:39 2017.

 ---------------------------------------------------------------------
 #N Geom=AllCheck Guess=TCheck SCRF=Check GenChk RM06/Aug-CC-pVTZ Freq
 ---------------------------------------------------------------------

 Structure from the checkpoint file:  "20170630_augccpVTZ_ccsdt_chloropentane.chk"
 ---------------
 1chloro-pentane
 ---------------
 Charge =  0 Multiplicity = 1

                         Standard orientation:
 ---------------------------------------------------------------------
 Center     Atomic      Atomic             Coordinates (Angstroms)
 Number     Number       Type             X           Y           Z
 ---------------------------------------------------------------------
      1          6           0        1.327331    0.656456   -0.000003
      2          1           0        1.314658    1.292329   -0.884246
      3          1           0        1.314641    1.292324    0.884243
      4          6           0        0.185380   -0.322247   -0.000017
      5          1           0        0.264478   -0.973144   -0.875991
      6          1           0        0.264476   -0.973161    0.875945
      7          6           0       -1.154069    0.389735   -0.000012
      8          1           0       -1.222284    1.047898    0.875041
      9          1           0       -1.222296    1.047897   -0.875065
     10          6           0       -2.328982   -0.567970   -0.000002
     11          1           0       -2.256170   -1.224316   -0.873624
     12          1           0       -2.256152   -1.224319    0.873617
     13         17           0        2.918444   -0.185294    0.000008
     14          6           0       -3.661684    0.149523    0.000014
     15          1           0       -4.500333   -0.546805    0.000041
     16          1           0       -3.761191    0.789168    0.879842
     17          1           0       -3.761225    0.789140   -0.879830
 ---------------------------------------------------------------------

 SCF Done:  E(RM06) =  -657.271549100     A.U. after    1 cycles

 The electronic state is 1-A.
 Alpha  occ. eigenvalues -- -101.72448 -10.29866 -10.24838 -10.24527 -10.24157
 Alpha  occ. eigenvalues --  -10.23163  -9.57369  -7.28587  -7.27668  -7.27662
 Alpha  occ. eigenvalues --   -0.87465  -0.82266  -0.76434  -0.68546  -0.61807
 Alpha  occ. eigenvalues --   -0.60032  -0.50934  -0.46926  -0.46161  -0.44692
 Alpha  occ. eigenvalues --   -0.41646  -0.41283  -0.38983  -0.36339  -0.35643
 Alpha  occ. eigenvalues --   -0.35219  -0.34319  -0.30394  -0.30363
 Alpha virt. eigenvalues --   -0.04197  -0.03071  -0.02906  -0.02678  -0.00973
 Alpha virt. eigenvalues --   -0.00754  -0.00573   0.00200   0.00470   0.00881
 Alpha virt. eigenvalues --    0.02022   0.02175   0.02664   0.03750   0.04824

 Mulliken charges:
               1
     1  C   -1.043578
     2  H    0.556545
     3  H    0.556543
     4  C   -1.430057
     5  H    0.813915
     6  H    0.813918
     7  C   -1.259571
     8  H    0.889084
     9  H    0.889090
    10  C   -1.191272
    11  H    0.782043
    12  H    0.782038
    13  Cl  -0.475203
    14  C   -2.768579
    15  H    0.647652
    16  H    0.718722
    17  H    0.718712
 Sum of Mulliken charges =   0.00000

 Dipole moment (field-independent basis, Debye):
    X=             -2.1687    Y=              0.6938    Z=             -0.0000  Tot=              2.2769
 Quadrupole moment (field-independent basis, Debye-Ang):
   XX=            -53.3908   YY=            -46.2956   ZZ=            -45.9194
   XY=              1.4365   XZ=             -0.0000   YZ=             -0.0000

  Exact polarizability: 101.354  -2.557  72.417  -0.005   0.013  66.881
 Approx polarizability: 112.924  -5.831 103.671   0.000  -0.000  99.324

                      1                      2                      3
                      A                      A                      A
 Frequencies --     53.2304                91.3773               119.5167
 Red. masses --      2.0109                 2.3093                 3.8520
 Frc consts  --      0.0034                 0.0114                 0.0324
 IR Inten    --      0.0037                 1.4800                 1.1759

                      4                      5                      6
                      A                      A                      A
 Frequencies --    172.4467               193.7566               264.2625
 Red. masses --      2.1933                 1.1646                 4.7092
 Frc consts  --      0.0384                 0.0258                 0.1938
 IR Inten    --      0.3077                 0.0000                 1.6114

                      7                      8                      9
                      A                      A                      A
 Frequencies --    352.0505               455.5970               712.2103
 Red. masses --      3.4609                 3.0034                 1.0661
 Frc consts  --      0.2527                 0.3673                 0.3186
 IR Inten    --      0.6652                 3.0581                 2.4373

                     10                     11                     12
                      A                      A                      A
 Frequencies --    740.8280               748.1737               827.9792
 Red. masses --      1.1096                 6.0608                 1.1838
 Frc consts  --      0.3588                 1.9989                 0.4781
 IR Inten    --      0.0809                51.2776                 0.7699

                     13                     14                     15
                      A                      A                      A
 Frequencies --    898.3093               950.2590              1030.0427
 Red. masses --      1.6598                 1.1897                 3.5971
 Frc consts  --      0.7892                 0.6330                 2.2486
 IR Inten    --      1.4446                 0.2743                 0.8067

                     16                     17                     18
                      A                      A                      A
 Frequencies --   1065.4564              1076.8981              1096.2585
 Red. masses --      2.5464                 2.0974                 1.1958
 Frc consts  --      1.7031                 1.4331                 0.8467
 IR Inten    --      6.0615                 0.4452                 0.8505

                     19                     20                     21
                      A                      A                      A
 Frequencies --   1130.4479              1212.5057              1235.0718
 Red. masses --      2.6480                 1.5922                 1.2496
 Frc consts  --      1.9937                 1.3792                 1.1231
 IR Inten    --      0.6937                 0.0566                 7.4270

                     22                     23                     24
                      A                      A                      A
 Frequencies --   1276.8553              1302.0162              1309.5553
 Red. masses --      1.2376                 1.2743                 1.1308
 Frc consts  --      1.1888                 1.2727                 1.1425
 IR Inten    --      0.0694                12.5137                 0.1592

                     25                     26                     27
                      A                      A                      A
 Frequencies --   1317.1558              1356.5664              1390.8637
 Red. masses --      1.0642                 1.4684                 1.7502
 Frc consts  --      1.0878                 1.5921                 1.9948
 IR Inten    --      0.4803                15.2427                 0.0892

                     28                     29                     30
                      A                      A                      A
 Frequencies --   1398.8099              1454.6597              1456.9292
 Red. masses --      1.2765                 1.0943                 1.0887
 Frc consts  --      1.4716                 1.3643                 1.3616
 IR Inten    --      3.8307                 0.7521                 0.2549

                     31                     32                     33
                      A                      A                      A
 Frequencies --   1463.4798              1474.0415              1474.4852
 Red. masses --      1.0714                 1.0373                 1.0800
 Frc consts  --      1.3520                 1.3279                 1.3834
 IR Inten    --      1.5987                 7.4217                 0.3332

                     34                     35                     36
                      A                      A                      A
 Frequencies --   1485.8603              2983.7470              3001.9283
 Red. masses --      1.0947                 1.0592                 1.0600
 Frc consts  --      1.4240                 5.5560                 5.6282
 IR Inten    --     10.0244                 9.3272                19.9667

                     37                     38                     39
                      A                      A                      A
 Frequencies --   3013.3755              3013.7249              3015.0438
 Red. masses --      1.0989                 1.0418                 1.0560
 Frc consts  --      5.8792                 5.5749                 5.6561
 IR Inten    --      3.4852                18.8104                43.0042

                     40                     41                     42
                      A                      A                      A
 Frequencies --   3037.9376              3051.4048              3056.4865
 Red. masses --      1.1025                 1.0580                 1.1034
 Frc consts  --      5.9950                 5.8043                 6.0732
 IR Inten    --     14.2397                22.3409                27.1328

                     43                     44                     45
                      A                      A                      A
 Frequencies --   3081.2216              3098.8014              3108.6913
 Red. masses --      1.1022                 1.1016                 1.1086
 Frc consts  --      6.1655                 6.2324                 6.3123
 IR Inten    --     45.0345                29.2516                12.8623

 - Thermochemistry -
 -------------------
 Temperature   298.150 Kelvin.  Pressure   1.00000 Atm.
 Atom     1 has atomic number  6 and mass  12.00000

 Molecular mass:   106.05493 amu.
 Principal axes and moments of inertia in atomic units:
                           1         2         3
     Eigenvalues --   119.199002255.931342319.67321
           X            0.99999   0.00437  -0.00000
           Y           -0.00437   0.99999   0.00000
           Z            0.00000  -0.00000   1.00000
 This molecule is an asymmetric top.
 Rotational symmetry number  1.
 Rotational temperatures (Kelvin)      0.72663     0.03839     0.03734
 Rotational constants (GHZ):          15.14057     0.80000     0.77802
 Zero-point vibrational energy     395068.6 (Joules/Mol)
                                   94.42367 (Kcal/Mol)
 Warning -- explicit consideration of   8 degrees of freedom as
           vibrations may cause significant error
 Vibrational temperatures:     76.59   131.47   171.96   248.11   278.77
          (Kelvin)            380.21   506.52   655.50  1024.71  1065.88
                             1076.45  1191.28  1292.47  1367.21  1482.00
                             1532.95  1549.41  1577.27  1626.46  1744.52
                             1776.99  1837.11  1873.31  1884.16  1895.09
                             1951.79  2001.14  2012.57  2092.93  2096.19
                             2105.62  2120.81  2121.45  2137.82  4292.94
                             4319.10  4335.57  4336.07  4337.97  4370.91
                             4390.29  4397.60  4433.19  4458.48  4472.71

 Zero-point correction=                           0.150474 (Hartree/Particle)
 Thermal correction to Energy=                    0.158583
 Thermal correction to Enthalpy=                  0.159527
 Thermal correction to Gibbs Free Energy=         0.117082
 Sum of electronic and zero-point Energies=           -657.121075
 Sum of electronic and thermal Energies=              -657.112966
 Sum of electronic and thermal Enthalpies=            -657.112022
 Sum of electronic and thermal Free Energies=         -657.154467

                     E (Thermal)             CV                S
                      KCal/Mol        Cal/Mol-Kelvin    Cal/Mol-Kelvin
 Total                   99.512             27.359             89.332
 Electronic               0.000              0.000              0.000
 Translational            0.889              2.981             39.893
 Rotational               0.889              2.981             27.925
 Vibrational             97.735             21.397             21.514
 Vibration     1          0.596              1.976              4.694
 Vibration     2          0.602              1.955              3.630
 Vibration     3          0.609              1.933              3.108
 Vibration     4          0.626              1.876              2.409
 Vibration     5          0.635              1.849              2.192
 Vibration     6          0.671              1.738              1.633
 Vibration     7          0.729              1.571              1.157
 Vibration     8          0.814              1.349              0.779

 Optimization completed.
    -- Stationary point found.
 Normal termination of Gaussian 09 at Fri Jul  7 01:23:29 2017.
