 Gaussian 09, Revision D.01,
 Gaussian 09:  ES64L-G09RevD.01 24-Apr-2013

 -------------------------------------------------------------
 # Opt=(Z-mat,maxcycle=200) m06/def2svp Integral=SuperFineGrid
 -------------------------------------------------------------

 ------
 C12H24
 ------
 Symbolic Z-matrix:
 Charge =  0 Multiplicity = 1

 SCF Done:  E(RM06) =  -470.970323075     A.U. after   12 cycles
 SCF Done:  E(RM06) =  -470.976035200     A.U. after   11 cycles
 SCF Done:  E(RM06) =  -470.976614709     A.U. after   10 cycles
 SCF Done:  E(RM06) =  -470.976683574     A.U. after    9 cycles
 SCF Done:  E(RM06) =  -470.976697798     A.U. after    9 cycles
 SCF Done:  E(RM06) =  -470.976699834     A.U. after    7 cycles
 SCF Done:  E(RM06) =  -470.976700011     A.U. after    7 cycles
 Optimization completed.
    -- Stationary point found.

                         Standard orientation:
 ---------------------------------------------------------------------
 Center     Atomic      Atomic             Coordinates (Angstroms)
 Number     Number       Type             X           Y           Z
 ---------------------------------------------------------------------
      1          6           0       -6.832329   -0.371249    0.105010
      2          6           0       -5.571448    0.465855    0.018427
      3          1           0       -7.744809    0.244334    0.072731
      4          1           0       -6.859867   -0.955471    1.040626
      5          1           0       -6.890079   -1.092609   -0.727929
      6          6           0       -4.300457   -0.364463    0.058660
      7          1           0       -5.548690    1.202588    0.844249
      8          1           0       -5.580394    1.068871   -0.909775
      9          6           0       -3.029028    0.459560   -0.026028
     10          1           0       -4.317006   -1.102291   -0.768634
     11          1           0       -4.285889   -0.969944    0.987229
     12          6           0       -1.759023   -0.370388    0.011668
     13          1           0       -3.011895    1.195929    0.802324
     14          1           0       -3.044663    1.065981   -0.953781
     15          6           0       -0.487939    0.454516   -0.071848
     16          1           0       -1.775322   -1.106018   -0.817312
     17          1           0       -1.743297   -0.977576    0.938847
     18          6           0        0.782029   -0.375566   -0.036019
     19          1           0       -0.470814    1.189215    0.757925
     20          1           0       -0.504132    1.062738   -0.998367
     21          6           0        2.052871    0.449735   -0.118045
     22          1           0        0.765597   -1.109519   -0.866451
     23          1           0        0.798002   -0.984426    0.889944
     24          6           0        3.322411   -0.380571   -0.084234
     25          1           0        2.070138    1.182553    0.713357
     26          1           0        2.036987    1.060070   -1.043335
     27          6           0        4.593240    0.453628   -0.164180
     28          1           0        3.308920   -1.109597   -0.918851
     29          1           0        3.342370   -0.992634    0.838209
     30          6           0        5.854643   -0.345170   -0.203255
     31          1           0        4.629048    1.174820    0.674632
     32          1           0        4.555592    1.067962   -1.086331
     33          6           0        6.958158   -0.088322    0.499011
     34          1           0        6.942868    0.603053    1.350720
     35          1           0        7.918872   -0.552912    0.257308
     36          1           0        5.909692   -1.090507   -1.012336
 ---------------------------------------------------------------------

 The electronic state is 1-A.
 Alpha  occ. eigenvalues --  -10.24977 -10.24790 -10.24341 -10.24191 -10.24077
 Alpha  occ. eigenvalues --  -10.24057 -10.24019 -10.23975 -10.23950 -10.23941
 Alpha  occ. eigenvalues --  -10.23900 -10.23592  -0.82388  -0.81203  -0.79221
 Alpha  occ. eigenvalues --   -0.76557  -0.73296  -0.69483  -0.65192  -0.60859
 Alpha  occ. eigenvalues --   -0.58217  -0.57621  -0.57347  -0.55143  -0.49504
 Alpha  occ. eigenvalues --   -0.48352  -0.46941  -0.45398  -0.44987  -0.43960
 Alpha  occ. eigenvalues --   -0.43300  -0.42493  -0.40787  -0.40532  -0.39133
 Alpha  occ. eigenvalues --   -0.37771  -0.36994  -0.36015  -0.35274  -0.34606
 Alpha  occ. eigenvalues --   -0.34088  -0.33802  -0.33377  -0.32868  -0.32391
 Alpha  occ. eigenvalues --   -0.32263  -0.31753  -0.26602
 Alpha virt. eigenvalues --    0.01759   0.06412   0.07030   0.07692   0.08105
 Alpha virt. eigenvalues --    0.08389   0.08918   0.09449   0.09906   0.10763
 Alpha virt. eigenvalues --    0.11005   0.12453   0.13323   0.13478   0.14764

 Mulliken charges:
               1
     1  C   -0.062121
     2  C   -0.077826
     3  H    0.039249
     4  H    0.035147
     5  H    0.035044
     6  C   -0.062489
     7  H    0.028161
     8  H    0.028117
     9  C   -0.040032
    10  H    0.020325
    11  H    0.020458
    12  C   -0.039728
    13  H    0.019414
    14  H    0.019295
    15  C   -0.041161
    16  H    0.019631
    17  H    0.019882
    18  C   -0.037981
    19  H    0.019808
    20  H    0.019554
    21  C   -0.041885
    22  H    0.019854
    23  H    0.020798
    24  C   -0.073538
    25  H    0.021169
    26  H    0.018859
    27  C    0.011470
    28  H    0.024677
    29  H    0.030864
    30  C   -0.081732
    31  H    0.022152
    32  H    0.044658
    33  C   -0.090481
    34  H    0.038155
    35  H    0.044220
    36  H    0.028014
 Sum of Mulliken charges =   0.00000

 Dipole moment (field-independent basis, Debye):
    X=             -0.4084    Y=              0.1474    Z=             -0.1986  Tot=              0.4775
 Quadrupole moment (field-independent basis, Debye-Ang):
   XX=            -83.7473   YY=            -81.2871   ZZ=            -79.1544
   XY=              0.1056   XZ=             -0.7489   YZ=              1.1786

 Normal termination of Gaussian 09 at Tue Oct 17 17:06:42 2017.
