 Gaussian 09, Revision E.01,
 Gaussian 09:  ES64L-G09RevE.01 30-Nov-2015

 -----------------------------
 # hf/sto-3g geom=connectivity
 -----------------------------

 -------------------
 Title Card Required
 -------------------
 Symbolic Z-matrix:
 Charge =  0 Multiplicity = 1

                         Standard orientation:
 ---------------------------------------------------------------------
 Center     Atomic      Atomic             Coordinates (Angstroms)
 Number     Number       Type             X           Y           Z
 ---------------------------------------------------------------------
      1          6           0        6.616045   -0.948209    0.096726
      2          1           0        6.685506   -1.380276   -0.916160
      3          1           0        6.444518   -1.785787    0.794190
      4          1           0        7.598201   -0.512836    0.338348
      5          6           0        5.498945    0.073100    0.181580
      6          1           0        5.467618    0.516788    1.195074
      7          1           0        5.706987    0.919362   -0.500886
      8          6           0        4.134828   -0.507196   -0.148501
      9          1           0        3.920558   -1.354276    0.533801
     10          1           0        4.159419   -0.951258   -1.164067
     11          6           0        3.006232    0.503687   -0.067124
     12          1           0        3.216429    1.348035   -0.753461
     13          1           0        2.976364    0.950634    0.945588
     14          6           0        1.639505   -0.085589   -0.393743
     15          1           0        1.414330   -0.914930    0.303240
     16          1           0        1.686598   -0.541861   -1.403064
     17          6           0        0.540798    0.923539   -0.346796
     18          1           0        0.638417    1.780079   -1.033618
     19          6           0       -0.514884    0.882980    0.469996
     20          1           0       -0.349370    0.614371    1.526106
     21          6           0       -1.929913    1.139881    0.070751
     22          1           0       -1.968654    1.439689   -0.993631
     23          1           0       -2.330586    2.000655    0.643167
     24          6           0       -2.842518   -0.058488    0.300828
     25          1           0       -2.782323   -0.368222    1.363186
     26          1           0       -2.460592   -0.922114   -0.277551
     27          6           0       -4.290515    0.205575   -0.067698
     28          1           0       -4.666980    1.071060    0.514006
     29          1           0       -4.348905    0.521267   -1.128793
     30          6           0       -5.204052   -0.987210    0.154169
     31          1           0       -4.822088   -1.848323   -0.426863
     32          1           0       -5.140493   -1.299494    1.214187
     33          6           0       -6.646819   -0.708794   -0.218783
     34          1           0       -7.296441   -1.582211   -0.052365
     35          1           0       -7.057685    0.127000    0.372894
     36          1           0       -6.736741   -0.427004   -1.281761
 ---------------------------------------------------------------------

 SCF Done:  E(RHF) =  -462.818888426     A.U. after   11 cycles

 The electronic state is 1-A.
 Alpha  occ. eigenvalues --  -11.04235 -11.04156 -11.04126 -11.04121 -11.03900
 Alpha  occ. eigenvalues --  -11.03882 -11.03540 -11.03514 -11.03423 -11.03280
 Alpha  occ. eigenvalues --  -11.00439 -11.00361  -1.05669  -1.04540  -1.01698
 Alpha  occ. eigenvalues --   -0.98606  -0.94364  -0.89460  -0.84802  -0.79199
 Alpha  occ. eigenvalues --   -0.76348  -0.75057  -0.74785  -0.69162  -0.61934
 Alpha  occ. eigenvalues --   -0.61472  -0.57839  -0.57677  -0.55841  -0.55116
 Alpha  occ. eigenvalues --   -0.53362  -0.53178  -0.52154  -0.51225  -0.48970
 Alpha  occ. eigenvalues --   -0.48251  -0.47084  -0.46304  -0.45127  -0.43665
 Alpha  occ. eigenvalues --   -0.42995  -0.42582  -0.42483  -0.41899  -0.41709
 Alpha  occ. eigenvalues --   -0.41555  -0.39926  -0.23997
 Alpha virt. eigenvalues --    0.27158   0.56593   0.57943   0.58018   0.58986
 Alpha virt. eigenvalues --    0.62178   0.63384   0.66132   0.66444   0.66872
 Alpha virt. eigenvalues --    0.67316   0.68202   0.69086   0.69577   0.70753

 Mulliken charges:
               1
     1  C   -0.166123
     2  H    0.052243
     3  H    0.052320
     4  H    0.054461
     5  C   -0.089264
     6  H    0.047884
     7  H    0.047641
     8  C   -0.090669
     9  H    0.044766
    10  H    0.044211
    11  C   -0.089550
    12  H    0.044986
    13  H    0.046512
    14  C   -0.098529
    15  H    0.053071
    16  H    0.057818
    17  C   -0.060107
    18  H    0.046351
    19  C   -0.059570
    20  H    0.045516
    21  C   -0.099037
    22  H    0.052866
    23  H    0.047114
    24  C   -0.087509
    25  H    0.048086
    26  H    0.048884
    27  C   -0.089573
    28  H    0.046517
    29  H    0.046525
    30  C   -0.089061
    31  H    0.048514
    32  H    0.048278
    33  C   -0.166072
    34  H    0.055035
    35  H    0.052710
    36  H    0.052756
 Sum of Mulliken charges =  -0.00000

 Dipole moment (field-independent basis, Debye):
    X=             -0.1378    Y=             -0.1060    Z=             -0.0283  Tot=              0.1762
 Quadrupole moment (field-independent basis, Debye-Ang):
   XX=            -76.3601   YY=            -76.0472   ZZ=            -74.6294
   XY=              0.0616   XZ=             -0.5694   YZ=             -0.2054

 Normal termination of Gaussian 09 at Mon Dec  4 11:08:00 2017.
