 Gaussian 09, Revision E.01,
 Gaussian 09:  ES64L-G09RevE.01 30-Nov-2015

 -----------------------------
 # hf/sto-3g geom=connectivity
 -----------------------------

 -------------------
 Title Card Required
 -------------------
 Symbolic Z-matrix:
 Charge =  0 Multiplicity = 1

                         Standard orientation:
 ---------------------------------------------------------------------
 Center     Atomic      Atomic             Coordinates (Angstroms)
 Number     Number       Type             X           Y           Z
 ---------------------------------------------------------------------
      1          6           0        5.172005   -2.153919   -0.172633
      2          1           0        5.742125   -1.701978   -1.002185
      3          1           0        4.538940   -2.945213   -0.609093
      4          1           0        5.895820   -2.642297    0.498292
      5          6           0        4.333482   -1.115340    0.545989
      6          1           0        3.795721   -1.582747    1.392957
      7          1           0        4.989176   -0.349964    1.003660
      8          6           0        3.328085   -0.429070   -0.362152
      9          1           0        2.667273   -1.191356   -0.821761
     10          1           0        3.861433    0.043231   -1.211648
     11          6           0        2.480800    0.613105    0.343692
     12          1           0        3.140190    1.379059    0.798314
     13          1           0        1.945072    0.147018    1.193397
     14          6           0        1.470227    1.294076   -0.571125
     15          1           0        0.794440    0.536128   -1.010583
     16          1           0        2.017045    1.744006   -1.424169
     17          6           0        0.666482    2.342940    0.122833
     18          1           0        1.235307    3.176056    0.566986
     19          6           0       -0.660794    2.332259    0.269403
     20          1           0       -1.109255    2.998342    1.024472
     21          6           0       -1.609071    1.461191   -0.485391
     22          1           0       -1.054217    0.871216   -1.239288
     23          1           0       -2.321836    2.089624   -1.056503
     24          6           0       -2.406193    0.525251    0.414878
     25          1           0       -2.941655    1.119806    1.181654
     26          1           0       -1.705184   -0.118421    0.981015
     27          6           0       -3.399463   -0.338235   -0.340134
     28          1           0       -4.098024    0.311489   -0.904972
     29          1           0       -2.863646   -0.927911   -1.110963
     30          6           0       -4.193045   -1.277360    0.551371
     31          1           0       -3.490662   -1.921518    1.114157
     32          1           0       -4.724247   -0.683979    1.320086
     33          6           0       -5.180482   -2.133723   -0.216611
     34          1           0       -5.748024   -2.808709    0.442822
     35          1           0       -5.910882   -1.510376   -0.760118
     36          1           0       -4.667110   -2.758551   -0.967246
 ---------------------------------------------------------------------

 SCF Done:  E(RHF) =  -462.864240242     A.U. after   10 cycles

 The electronic state is 1-A.
 Alpha  occ. eigenvalues --  -11.04083 -11.04069 -11.04066 -11.04009 -11.03946
 Alpha  occ. eigenvalues --  -11.03791 -11.03773 -11.03686 -11.03396 -11.03358
 Alpha  occ. eigenvalues --  -11.00963 -11.00886  -1.05955  -1.04499  -1.01903
 Alpha  occ. eigenvalues --   -0.98404  -0.94468  -0.89198  -0.85285  -0.79029
 Alpha  occ. eigenvalues --   -0.77484  -0.75153  -0.74946  -0.67168  -0.63108
 Alpha  occ. eigenvalues --   -0.61356  -0.59446  -0.56680  -0.55878  -0.54834
 Alpha  occ. eigenvalues --   -0.54550  -0.52637  -0.52226  -0.51169  -0.48808
 Alpha  occ. eigenvalues --   -0.47808  -0.47265  -0.46793  -0.44845  -0.44191
 Alpha  occ. eigenvalues --   -0.43188  -0.42694  -0.42044  -0.41870  -0.41319
 Alpha  occ. eigenvalues --   -0.41000  -0.39592  -0.27825
 Alpha virt. eigenvalues --    0.31506   0.55329   0.57806   0.58153   0.58906
 Alpha virt. eigenvalues --    0.61045   0.63915   0.65298   0.66057   0.66777
 Alpha virt. eigenvalues --    0.67491   0.67793   0.68774   0.69600   0.70237

 Mulliken charges:
               1
     1  C   -0.166095
     2  H    0.052581
     3  H    0.052527
     4  H    0.054897
     5  C   -0.089147
     6  H    0.048281
     7  H    0.048187
     8  C   -0.089891
     9  H    0.045510
    10  H    0.045800
    11  C   -0.088162
    12  H    0.047075
    13  H    0.047935
    14  C   -0.101871
    15  H    0.054064
    16  H    0.050228
    17  C   -0.059706
    18  H    0.048376
    19  C   -0.059837
    20  H    0.048547
    21  C   -0.101698
    22  H    0.054338
    23  H    0.054058
    24  C   -0.089003
    25  H    0.046140
    26  H    0.046789
    27  C   -0.090262
    28  H    0.045216
    29  H    0.044893
    30  C   -0.089216
    31  H    0.047987
    32  H    0.047976
    33  C   -0.166115
    34  H    0.054711
    35  H    0.052484
    36  H    0.052399
 Sum of Mulliken charges =  -0.00000

 Dipole moment (field-independent basis, Debye):
    X=              0.0267    Y=             -0.1494    Z=             -0.0292  Tot=              0.1546
 Quadrupole moment (field-independent basis, Debye-Ang):
   XX=            -75.1982   YY=            -76.5082   ZZ=            -75.9232
   XY=             -0.0107   XZ=             -0.1859   YZ=              0.3009

 Normal termination of Gaussian 09 at Mon Dec  4 11:09:09 2017.
