 Gaussian 09, Revision D.01,
 Gaussian 09:  ES64L-G09RevD.01 24-Apr-2013

 -------------------------------------------------------------
 # Opt=(Z-mat,maxcycle=200) m06/def2svp Integral=SuperFineGrid
 -------------------------------------------------------------

 ------
 C12H24
 ------
 Symbolic Z-matrix:
 Charge =  0 Multiplicity = 1

 SCF Done:  E(RM06) =  -470.974909391     A.U. after   12 cycles
 SCF Done:  E(RM06) =  -470.978989149     A.U. after   10 cycles
 SCF Done:  E(RM06) =  -470.979324524     A.U. after    9 cycles
 SCF Done:  E(RM06) =  -470.979345932     A.U. after    8 cycles
 SCF Done:  E(RM06) =  -470.979349224     A.U. after    8 cycles
 SCF Done:  E(RM06) =  -470.979350221     A.U. after    8 cycles
 Optimization completed.
    -- Stationary point found.

                         Standard orientation:
 ---------------------------------------------------------------------
 Center     Atomic      Atomic             Coordinates (Angstroms)
 Number     Number       Type             X           Y           Z
 ---------------------------------------------------------------------
      1          6           0       -6.814812   -0.415482    0.094266
      2          6           0       -5.561471    0.437241    0.092934
      3          1           0       -7.732346    0.191448    0.142861
      4          1           0       -6.827580   -1.104346    0.956101
      5          1           0       -6.876078   -1.036018   -0.816024
      6          6           0       -4.283666   -0.381046    0.027687
      7          1           0       -5.536735    1.075341    0.997068
      8          1           0       -5.583926    1.141929   -0.760397
      9          6           0       -3.019341    0.458206    0.024663
     10          1           0       -4.302872   -1.021400   -0.877095
     11          1           0       -4.255133   -1.086940    0.882063
     12          6           0       -1.742659   -0.359961   -0.039035
     13          1           0       -3.000733    1.098953    0.928969
     14          1           0       -3.047510    1.163054   -0.830376
     15          6           0       -0.478466    0.479756   -0.042934
     16          1           0       -1.761100   -1.001258   -0.942908
     17          1           0       -1.713758   -1.064255    0.816363
     18          6           0        0.798024   -0.338841   -0.105192
     19          1           0       -0.460165    1.121659    0.860495
     20          1           0       -0.506613    1.183433   -0.898884
     21          6           0        2.062005    0.501099   -0.109525
     22          1           0        0.779773   -0.981122   -1.008341
     23          1           0        0.826669   -1.041938    0.751045
     24          6           0        3.337321   -0.318855   -0.171418
     25          1           0        2.080698    1.143030    0.793801
     26          1           0        2.034562    1.204440   -0.965816
     27          6           0        4.602725    0.529744   -0.168418
     28          1           0        3.323384   -0.955849   -1.078060
     29          1           0        3.369988   -1.024416    0.681311
     30          6           0        5.851435   -0.282510   -0.267202
     31          1           0        4.634401    1.154990    0.743743
     32          1           0        4.554101    1.236547   -1.020988
     33          6           0        6.839345   -0.290909    0.626555
     34          1           0        6.792492    0.327492    1.531237
     35          1           0        7.731819   -0.910256    0.496469
     36          1           0        5.934032   -0.925173   -1.156921
 ---------------------------------------------------------------------

 The electronic state is 1-A.
 Alpha  occ. eigenvalues --  -10.24984 -10.24717 -10.24411 -10.24208 -10.24088
 Alpha  occ. eigenvalues --  -10.24060 -10.24027 -10.23981 -10.23945 -10.23936
 Alpha  occ. eigenvalues --  -10.23904 -10.23594  -0.82408  -0.81224  -0.79231
 Alpha  occ. eigenvalues --   -0.76542  -0.73268  -0.69468  -0.65190  -0.60855
 Alpha  occ. eigenvalues --   -0.58222  -0.57622  -0.57352  -0.55176  -0.49522
 Alpha  occ. eigenvalues --   -0.48402  -0.46986  -0.45395  -0.44952  -0.43982
 Alpha  occ. eigenvalues --   -0.43271  -0.42436  -0.40870  -0.40492  -0.39058
 Alpha  occ. eigenvalues --   -0.37703  -0.37122  -0.35977  -0.35254  -0.34620
 Alpha  occ. eigenvalues --   -0.34040  -0.33837  -0.33382  -0.32859  -0.32398
 Alpha  occ. eigenvalues --   -0.32264  -0.31744  -0.26841
 Alpha virt. eigenvalues --    0.02161   0.06403   0.07012   0.07668   0.08083
 Alpha virt. eigenvalues --    0.08398   0.08898   0.09463   0.09932   0.10789
 Alpha virt. eigenvalues --    0.10976   0.12491   0.13338   0.13464   0.14768

 Mulliken charges:
               1
     1  C   -0.062161
     2  C   -0.077757
     3  H    0.039258
     4  H    0.035104
     5  H    0.035092
     6  C   -0.062589
     7  H    0.028179
     8  H    0.028124
     9  C   -0.039911
    10  H    0.020357
    11  H    0.020434
    12  C   -0.039880
    13  H    0.019418
    14  H    0.019329
    15  C   -0.040949
    16  H    0.019664
    17  H    0.019899
    18  C   -0.038171
    19  H    0.019847
    20  H    0.019594
    21  C   -0.040078
    22  H    0.020011
    23  H    0.020898
    24  C   -0.073316
    25  H    0.021302
    26  H    0.019249
    27  C    0.017668
    28  H    0.025074
    29  H    0.029933
    30  C   -0.084958
    31  H    0.021155
    32  H    0.037990
    33  C   -0.086576
    34  H    0.036929
    35  H    0.043541
    36  H    0.028297
 Sum of Mulliken charges =   0.00000

 Dipole moment (field-independent basis, Debye):
    X=             -0.4414    Y=              0.0892    Z=             -0.1373  Tot=              0.4708
 Quadrupole moment (field-independent basis, Debye-Ang):
   XX=            -84.3378   YY=            -81.3336   ZZ=            -78.7877
   XY=             -0.5978   XZ=             -0.2574   YZ=              0.8005

 Normal termination of Gaussian 09 at Tue Oct 17 17:04:21 2017.
