 Gaussian 09, Revision D.01,
 Gaussian 09:  ES64L-G09RevD.01 24-Apr-2013

 -------------------------------------------------------------
 # Opt=(Z-mat,maxcycle=200) m06/def2svp Integral=SuperFineGrid
 -------------------------------------------------------------

 ------
 C12H24
 ------
 Symbolic Z-matrix:
 Charge =  0 Multiplicity = 1

 SCF Done:  E(RM06) =  -470.904528002     A.U. after   13 cycles
 SCF Done:  E(RM06) =  -470.929033226     A.U. after   12 cycles
 SCF Done:  E(RM06) =  -470.939769612     A.U. after   13 cycles
 SCF Done:  E(RM06) =  -470.940680797     A.U. after   10 cycles
 SCF Done:  E(RM06) =  -470.940876076     A.U. after   10 cycles
 SCF Done:  E(RM06) =  -470.940915036     A.U. after    9 cycles
 SCF Done:  E(RM06) =  -470.940921588     A.U. after    9 cycles
 SCF Done:  E(RM06) =  -470.940923551     A.U. after    8 cycles
 SCF Done:  E(RM06) =  -470.940924203     A.U. after    7 cycles
 Optimization completed.
    -- Stationary point found.

                         Standard orientation:
 ---------------------------------------------------------------------
 Center     Atomic      Atomic             Coordinates (Angstroms)
 Number     Number       Type             X           Y           Z
 ---------------------------------------------------------------------
      1          6           0       -6.852873   -0.349884    0.011382
      2          6           0       -5.586364    0.479642   -0.065605
      3          1           0       -7.761438    0.268301   -0.059018
      4          1           0       -6.905962   -0.909576    0.960789
      5          1           0       -6.893549   -1.092311   -0.803856
      6          6           0       -4.320783   -0.354506    0.029366
      7          1           0       -5.581070    1.238263    0.740451
      8          1           0       -5.568985    1.057393   -1.009620
      9          6           0       -3.043508    0.461412   -0.045570
     10          1           0       -4.320092   -1.114822   -0.777471
     11          1           0       -4.332611   -0.934181    0.974297
     12          6           0       -1.779153   -0.372623    0.049293
     13          1           0       -3.044300    1.221258    0.761477
     14          1           0       -3.031877    1.040867   -0.990453
     15          6           0       -0.501989    0.443743   -0.025141
     16          1           0       -1.777804   -1.132267   -0.757889
     17          1           0       -1.790623   -0.952307    0.993968
     18          6           0        0.762086   -0.390693    0.069377
     19          1           0       -0.502921    1.203082    0.782316
     20          1           0       -0.490446    1.023723   -0.969669
     21          6           0        2.039239    0.425719   -0.003946
     22          1           0        0.763571   -1.149671   -0.738366
     23          1           0        0.750444   -0.970956    1.013590
     24          6           0        3.302617   -0.409495    0.090536
     25          1           0        2.037514    1.184714    0.803720
     26          1           0        2.050921    1.006028   -0.948561
     27          6           0        4.575306    0.415183    0.003067
     28          1           0        3.303599   -1.170231   -0.715522
     29          1           0        3.298002   -0.984355    1.036240
     30          6           0        5.851837   -0.377151   -0.081597
     31          1           0        4.594622    1.165445    0.818702
     32          1           0        4.566779    0.999744   -0.936436
     33          6           0        7.138200   -0.013616    0.062588
     34          1           0        7.537366    0.428892    0.987002
     35          1           0        7.858254   -0.146025   -0.752918
     36          1           0        5.732914   -1.027390   -0.975270
 ---------------------------------------------------------------------

 The electronic state is 1-A.
 Alpha  occ. eigenvalues --  -10.25538 -10.25041 -10.24582 -10.24328 -10.24244
 Alpha  occ. eigenvalues --  -10.24111 -10.24066 -10.24043 -10.23992 -10.23955
 Alpha  occ. eigenvalues --  -10.23910 -10.23598  -0.82422  -0.81209  -0.79196
 Alpha  occ. eigenvalues --   -0.76560  -0.73403  -0.69647  -0.65340  -0.60973
 Alpha  occ. eigenvalues --   -0.58263  -0.57663  -0.57362  -0.54808  -0.49524
 Alpha  occ. eigenvalues --   -0.48302  -0.46644  -0.45179  -0.45108  -0.44106
 Alpha  occ. eigenvalues --   -0.43417  -0.42554  -0.41007  -0.40532  -0.39409
 Alpha  occ. eigenvalues --   -0.38048  -0.36834  -0.35907  -0.35621  -0.34420
 Alpha  occ. eigenvalues --   -0.34106  -0.33567  -0.33362  -0.32931  -0.32419
 Alpha  occ. eigenvalues --   -0.32276  -0.31823  -0.24662
 Alpha virt. eigenvalues --   -0.01546   0.06387   0.06995   0.07655   0.08060
 Alpha virt. eigenvalues --    0.08428   0.08843   0.09503   0.09922   0.10685
 Alpha virt. eigenvalues --    0.11259   0.12407   0.13037   0.13559   0.14708

 Mulliken charges:
               1
     1  C   -0.062152
     2  C   -0.077765
     3  H    0.039266
     4  H    0.035143
     5  H    0.035092
     6  C   -0.062635
     7  H    0.028173
     8  H    0.028121
     9  C   -0.039850
    10  H    0.020388
    11  H    0.020468
    12  C   -0.039992
    13  H    0.019414
    14  H    0.019304
    15  C   -0.040392
    16  H    0.019732
    17  H    0.019930
    18  C   -0.039177
    19  H    0.019765
    20  H    0.019521
    21  C   -0.043738
    22  H    0.020286
    23  H    0.020945
    24  C   -0.062976
    25  H    0.021625
    26  H    0.018780
    27  C   -0.008262
    28  H    0.021920
    29  H    0.031723
    30  C   -0.067764
    31  H    0.028951
    32  H    0.051433
    33  C   -0.123127
    34  H    0.051085
    35  H    0.057532
    36  H    0.019234
 Sum of Mulliken charges =   0.00000

 Dipole moment (field-independent basis, Debye):
    X=             -0.4530    Y=              0.4022    Z=             -0.3239  Tot=              0.6870
 Quadrupole moment (field-independent basis, Debye-Ang):
   XX=            -83.9994   YY=            -81.8726   ZZ=            -78.9136
   XY=              2.2987   XZ=             -2.0438   YZ=              0.7465

 Normal termination of Gaussian 09 at Tue Oct 17 17:16:16 2017.
